#     Step Nr.          Time[fs]        Kin.[a.u.]          Temp[K]            Pot.[a.u.]        Cons Qty[a.u.]        UsedTime[s]
    100010        50005.000000         0.080893613        19.732832824        -2.348234565        -2.267340952         0.005540580
    100020        50010.000000         0.080747159        19.697107621        -2.348088123        -2.267340964         0.005506386
    100030        50015.000000         0.080614195        19.664672826        -2.347955164        -2.267340970         0.005526603
    100040        50020.000000         0.080496645        19.635998347        -2.347837619        -2.267340973         0.005531202
    100050        50025.000000         0.080395957        19.611436936        -2.347736931        -2.267340974         0.005523408
    100060        50030.000000         0.080313717        19.591375633        -2.347654698        -2.267340981         0.005533757
    100070        50035.000000         0.080251083        19.576096933        -2.347592072        -2.267340989         0.005529048
    100080        50040.000000         0.080208939        19.565816482        -2.347549927        -2.267340988         0.005528457
    100090        50045.000000         0.080187378        19.560557111        -2.347528364        -2.267340986         0.005509010
    100100        50050.000000         0.080185886        19.560193038        -2.347526887        -2.267341002         0.005541742
    100110        50055.000000         0.080203525        19.564495947        -2.347544515        -2.267340990         0.005510624
    100120        50060.000000         0.080239795        19.573343310        -2.347580786        -2.267340991         0.005547884
    100130        50065.000000         0.080294005        19.586567169        -2.347634995        -2.267340990         0.005531092
    100140        50070.000000         0.080364922        19.603866215        -2.347705919        -2.267340997         0.005530992
    100150        50075.000000         0.080450859        19.624829330        -2.347791863        -2.267341004         0.005543465
    100160        50080.000000         0.080550142        19.649048181        -2.347891150        -2.267341008         0.005536843
    100170        50085.000000         0.080660886        19.676062397        -2.348001898        -2.267341012         0.005536762
    100180        50090.000000         0.080781362        19.705450783        -2.348122362        -2.267341000         0.005554587
    100190        50095.000000         0.080909552        19.736720852        -2.348250549        -2.267340998         0.005602316
    100200        50100.000000         0.081043991        19.769515379        -2.348384985        -2.267340994         0.005548775
    100210        50105.000000         0.081182464        19.803294042        -2.348523459        -2.267340995         0.007192436
    100220        50110.000000         0.081323143        19.837610459        -2.348664138        -2.267340995         0.006930404
    100230        50115.000000         0.081464751        19.872153865        -2.348805745        -2.267340994         0.006882003
    100240        50120.000000         0.081605920        19.906589985        -2.348946921        -2.267341001         0.006891101
    100250        50125.000000         0.081745599        19.940662507        -2.349086597        -2.267340999         0.006969908
    100260        50130.000000         0.081882469        19.974049955        -2.349223470        -2.267341001         0.006912639
    100270        50135.000000         0.082015233        20.006436059        -2.349356237        -2.267341004         0.006952796
    100280        50140.000000         0.082142569        20.037497767        -2.349483565        -2.267340996         0.006935485
    100290        50145.000000         0.082263145        20.066910488        -2.349604141        -2.267340996         0.006999132
    100300        50150.000000         0.082375512        20.094320921        -2.349716513        -2.267341000         0.006931727
    100310        50155.000000         0.082478142        20.119355911        -2.349819151        -2.267341010         0.006887002
    100320        50160.000000         0.082570028        20.141770202        -2.349911026        -2.267340998         0.006919353
    100330        50165.000000         0.082650437        20.161384904        -2.349991438        -2.267341000         0.006883706
    100340        50170.000000         0.082718351        20.177951569        -2.350059357        -2.267341006         0.006911067
    100350        50175.000000         0.082772601        20.191184947        -2.350113608        -2.267341008         0.006658552
    100360        50180.000000         0.082812413        20.200896489        -2.350153394        -2.267340981         0.006269902
    100370        50185.000000         0.082837096        20.206917497        -2.350178076        -2.267340980         0.005935452
    100380        50190.000000         0.082846328        20.209169710        -2.350187303        -2.267340974         0.005656047
    100390        50195.000000         0.082840298        20.207698579        -2.350181277        -2.267340980         0.005466641
    100400        50200.000000         0.082818675        20.202424020        -2.350159649        -2.267340974         0.005200370
    100410        50205.000000         0.082781979        20.193472544        -2.350122947        -2.267340968         0.005132172
    100420        50210.000000         0.082730422        20.180895983        -2.350071390        -2.267340968         0.005069764
    100430        50215.000000         0.082664238        20.164751426        -2.350005209        -2.267340970         0.005111834
    100440        50220.000000         0.082584664        20.145340398        -2.349925632        -2.267340968         0.005092236
    100450        50225.000000         0.082493071        20.122997651        -2.349834042        -2.267340971         0.005111674
    100460        50230.000000         0.082390395        20.097951412        -2.349731361        -2.267340965         0.005097176
    100470        50235.000000         0.082277440        20.070397562        -2.349618380        -2.267340940         0.005116373
    100480        50240.000000         0.082155077        20.040548902        -2.349496009        -2.267340932         0.005146489
    100490        50245.000000         0.082024472        20.008689737        -2.349365406        -2.267340934         0.005118497
    100500        50250.000000         0.081887058        19.975169505        -2.349228003        -2.267340945         0.005116452
    100510        50255.000000         0.081744470        19.940387138        -2.349085426        -2.267340956         0.005127301
    100520        50260.000000         0.081597857        19.904623034        -2.348938823        -2.267340966         0.005123626
    100530        50265.000000         0.081447788        19.868015943        -2.348788735        -2.267340947         0.005101394
    100540        50270.000000         0.081296004        19.830990413        -2.348636958        -2.267340954         0.005119999
    100550        50275.000000         0.081144204        19.793960961        -2.348485145        -2.267340941         0.005124808
    100560        50280.000000         0.080993727        19.757254181        -2.348334650        -2.267340924         0.005111392
    100570        50285.000000         0.080845553        19.721109279        -2.348186476        -2.267340923         0.005154564
    100580        50290.000000         0.080700995        19.685846372        -2.348041911        -2.267340916         0.005087638
    100590        50295.000000         0.080561452        19.651806970        -2.347902393        -2.267340941         0.005122474
    100600        50300.000000         0.080428483        19.619371216        -2.347769421        -2.267340937         0.005145418
    100610        50305.000000         0.080303206        19.588811638        -2.347644137        -2.267340931         0.005134136
    100620        50310.000000         0.080187063        19.560480212        -2.347527986        -2.267340923         0.005140097
    100630        50315.000000         0.080080824        19.534564608        -2.347421757        -2.267340933         0.004076036
    100640        50320.000000         0.079985512        19.511314702        -2.347326430        -2.267340918         0.004168439
    100650        50325.000000         0.079901586        19.490842163        -2.347242498        -2.267340912         0.004943025
    100660        50330.000000         0.079830125        19.473410228        -2.347171032        -2.267340907         0.004128645
    100670        50335.000000         0.079771910        19.459209529        -2.347112812        -2.267340902         0.004090633
    100680        50340.000000         0.079727072        19.448272099        -2.347067973        -2.267340900         0.004105020
    100690        50345.000000         0.079696481        19.440809830        -2.347037366        -2.267340885         0.004068531
    100700        50350.000000         0.079680592        19.436933770        -2.347021472        -2.267340881         0.004109679
    100710        50355.000000         0.079679574        19.436685607        -2.347020449        -2.267340875         0.004131239
    100720        50360.000000         0.079693005        19.439961716        -2.347033881        -2.267340877         0.004123526
    100730        50365.000000         0.079720504        19.446669831        -2.347061378        -2.267340874         0.004062701
    100740        50370.000000         0.079761456        19.456659355        -2.347102326        -2.267340870         0.004116021
    100750        50375.000000         0.079815664        19.469882641        -2.347156532        -2.267340868         0.004113686
    100760        50380.000000         0.079882060        19.486079106        -2.347222934        -2.267340874         0.004122433
    100770        50385.000000         0.079960272        19.505157702        -2.347301137        -2.267340866         0.004086555
    100780        50390.000000         0.080048880        19.526772525        -2.347389749        -2.267340869         0.004081366
    100790        50395.000000         0.080146139        19.550497441        -2.347487023        -2.267340883         0.004118095
    100800        50400.000000         0.080251079        19.576095956        -2.347591945        -2.267340866         0.004117044
    100810        50405.000000         0.080361790        19.603102432        -2.347702650        -2.267340859         0.004095062
    100820        50410.000000         0.080477019        19.631210711        -2.347817860        -2.267340841         0.004073591
    100830        50415.000000         0.080595389        19.660085509        -2.347936236        -2.267340847         0.004135067
    100840        50420.000000         0.080715745        19.689444591        -2.348056577        -2.267340832         0.004056709
    100850        50425.000000         0.080836685        19.718946085        -2.348177515        -2.267340831         0.004120870
    100860        50430.000000         0.080957073        19.748313142        -2.348297901        -2.267340828         0.004069904
    100870        50435.000000         0.081075650        19.777238139        -2.348416471        -2.267340821         0.004073751
    100880        50440.000000         0.081191270        19.805441954        -2.348532115        -2.267340846         0.004111564
    100890        50445.000000         0.081302905        19.832673803        -2.348643770        -2.267340865         0.004102395
    100900        50450.000000         0.081409305        19.858628512        -2.348750175        -2.267340870         0.004095904
    100910        50455.000000         0.081509358        19.883035132        -2.348850229        -2.267340871         0.004078871
    100920        50460.000000         0.081602428        19.905738166        -2.348943294        -2.267340866         0.011697319
    100930        50465.000000         0.081687715        19.926542643        -2.349028577        -2.267340862         0.004090964
    100940        50470.000000         0.081764410        19.945251188        -2.349105270        -2.267340861         0.004074262
    100950        50475.000000         0.081831401        19.961592741        -2.349172269        -2.267340868         0.004063583
    100960        50480.000000         0.081888426        19.975503231        -2.349229281        -2.267340855         0.004056369
    100970        50485.000000         0.081935663        19.987026044        -2.349276527        -2.267340864         0.004089621
    100980        50490.000000         0.081972490        19.996009444        -2.349313355        -2.267340865         0.004056609
    100990        50495.000000         0.081999566        20.002614258        -2.349340453        -2.267340886         0.004105872
    101000        50500.000000         0.082016970        20.006859771        -2.349357876        -2.267340906         0.004084652
    101010        50505.000000         0.082024819        20.008774258        -2.349365738        -2.267340920         0.004070906
    101020        50510.000000         0.082023769        20.008518271        -2.349364687        -2.267340918         0.004087958
    101030        50515.000000         0.082014818        20.006334625        -2.349355746        -2.267340928         0.004083450
    101040        50520.000000         0.081998480        20.002349402        -2.349339417        -2.267340937         0.004071217
    101050        50525.000000         0.081975752        19.996805152        -2.349316699        -2.267340947         0.004078771
    101060        50530.000000         0.081948212        19.990087229        -2.349289146        -2.267340933         0.004123094
    101070        50535.000000         0.081917267        19.982538523        -2.349258182        -2.267340915         0.004098217
    101080        50540.000000         0.081884468        19.974537818        -2.349225375        -2.267340907         0.004068512
    101090        50545.000000         0.081851409        19.966473500        -2.349192314        -2.267340904         0.004083418
    101100        50550.000000         0.081819917        19.958791344        -2.349160815        -2.267340898         0.004085904
    101110        50555.000000         0.081791834        19.951941011        -2.349132733        -2.267340899         0.004098598
    101120        50560.000000         0.081768842        19.946332448        -2.349109739        -2.267340897         0.004087768
    101130        50565.000000         0.081752422        19.942327076        -2.349093322        -2.267340900         0.004058803
    101140        50570.000000         0.081743501        19.940150774        -2.349084396        -2.267340895         0.004087387
    101150        50575.000000         0.081743678        19.940193940        -2.349084573        -2.267340895         0.004078280
    101160        50580.000000         0.081753561        19.942604746        -2.349094450        -2.267340890         0.004138243
    101170        50585.000000         0.081773629        19.947500048        -2.349114508        -2.267340879         0.004117632
    101180        50590.000000         0.081804078        19.954927595        -2.349144959        -2.267340882         0.004085854
    101190        50595.000000         0.081844894        19.964884089        -2.349185751        -2.267340857         0.004085463
    101200        50600.000000         0.081895699        19.977277230        -2.349236553        -2.267340854         0.004085984
    101210        50605.000000         0.081955443        19.991851101        -2.349296311        -2.267340868         0.004106884
    101220        50610.000000         0.082023053        20.008343401        -2.349363938        -2.267340886         0.004078240
    101230        50615.000000         0.082097152        20.026418919        -2.349438034        -2.267340882         0.004083490
    101240        50620.000000         0.082176261        20.045716507        -2.349517167        -2.267340905         0.004072839
    101250        50625.000000         0.082258407        20.065754778        -2.349599310        -2.267340903         0.004101734
    101260        50630.000000         0.082341898        20.086121286        -2.349682794        -2.267340896         0.004056248
    101270        50635.000000         0.082424338        20.106231175        -2.349765218        -2.267340880         0.004082758
    101280        50640.000000         0.082503337        20.125501814        -2.349844228        -2.267340892         0.004072599
    101290        50645.000000         0.082577258        20.143533972        -2.349918163        -2.267340905         0.004084000
    101300        50650.000000         0.082644566        20.159952647        -2.349985482        -2.267340916         0.004066207
    101310        50655.000000         0.082704231        20.174507144        -2.350045133        -2.267340901         0.004095393
    101320        50660.000000         0.082755507        20.187015230        -2.350096399        -2.267340892         0.004080544
    101330        50665.000000         0.082797464        20.197249846        -2.350138356        -2.267340892         0.004074083
    101340        50670.000000         0.082830048        20.205198316        -2.350170940        -2.267340892         0.004081866
    101350        50675.000000         0.082853294        20.210868865        -2.350194179        -2.267340885         0.004055907
    101360        50680.000000         0.082867265        20.214276838        -2.350208162        -2.267340898         0.004106201
    101370        50685.000000         0.082873261        20.215739424        -2.350214137        -2.267340876         0.004087197
    101380        50690.000000         0.082872753        20.215615530        -2.350213647        -2.267340895         0.004097536
    101390        50695.000000         0.082866708        20.214141110        -2.350207606        -2.267340898         0.004073972
    101400        50700.000000         0.082856262        20.211592930        -2.350197159        -2.267340897         0.004109408
    101410        50705.000000         0.082842842        20.208319207        -2.350183736        -2.267340894         0.004075234
    101420        50710.000000         0.082828292        20.204769924        -2.350169192        -2.267340900         0.004128896
    101430        50715.000000         0.082814090        20.201305539        -2.350154999        -2.267340910         0.004084310
    101440        50720.000000         0.082801738        20.198292638        -2.350142651        -2.267340913         0.004085884
    101450        50725.000000         0.082791918        20.195897071        -2.350132809        -2.267340891         0.004101294
    101460        50730.000000         0.082785592        20.194353818        -2.350126484        -2.267340892         0.004107064
    101470        50735.000000         0.082784056        20.193979183        -2.350124947        -2.267340891         0.004100512
    101480        50740.000000         0.082787972        20.194934570        -2.350128840        -2.267340868         0.004105371
    101490        50745.000000         0.082797690        20.197305115        -2.350138576        -2.267340886         0.004160094
    101500        50750.000000         0.082814021        20.201288898        -2.350154904        -2.267340882         0.004145738
    101510        50755.000000         0.082837229        20.206950027        -2.350178117        -2.267340888         0.004114899
    101520        50760.000000         0.082866029        20.213975363        -2.350206899        -2.267340870         0.004084111
    101530        50765.000000         0.082900365        20.222351046        -2.350241238        -2.267340874         0.004080895
    101540        50770.000000         0.082939908        20.231997045        -2.350280788        -2.267340880         0.004084131
    101550        50775.000000         0.082984017        20.242756818        -2.350324889        -2.267340872         0.004083741
    101560        50780.000000         0.083031466        20.254331345        -2.350372344        -2.267340878         0.004147930
    101570        50785.000000         0.083081232        20.266471060        -2.350422114        -2.267340882         0.004086826
    101580        50790.000000         0.083131985        20.278851516        -2.350472869        -2.267340884         0.004081816
    101590        50795.000000         0.083182396        20.291148676        -2.350523286        -2.267340889         0.004076736
    101600        50800.000000         0.083231306        20.303079426        -2.350572198        -2.267340892         0.004081416
    101610        50805.000000         0.083276818        20.314181432        -2.350617710        -2.267340892         0.004081025
    101620        50810.000000         0.083317568        20.324121789        -2.350658461        -2.267340893         0.004130027
    101630        50815.000000         0.083352992        20.332763053        -2.350693882        -2.267340889         0.004083781
    101640        50820.000000         0.083381788        20.339787375        -2.350722681        -2.267340893         0.004102626
    101650        50825.000000         0.083401807        20.344670724        -2.350742699        -2.267340892         0.004091426
    101660        50830.000000         0.083412458        20.347268751        -2.350753340        -2.267340882         0.004098548
    101670        50835.000000         0.083412675        20.347321813        -2.350753538        -2.267340863         0.004132573
    101680        50840.000000         0.083402445        20.344826265        -2.350743304        -2.267340859         0.004113957
    101690        50845.000000         0.083380530        20.339480421        -2.350721396        -2.267340866         0.004072409
    101700        50850.000000         0.083346765        20.331243992        -2.350687641        -2.267340877         0.004152069
    101710        50855.000000         0.083300780        20.320026533        -2.350641651        -2.267340871         0.004075374
    101720        50860.000000         0.083242160        20.305727079        -2.350583039        -2.267340879         0.004130858
    101730        50865.000000         0.083171541        20.288500702        -2.350512414        -2.267340872         0.004088048
    101740        50870.000000         0.083089135        20.268398888        -2.350429985        -2.267340850         0.004078601
    101750        50875.000000         0.082994934        20.245419949        -2.350335782        -2.267340848         0.004100211
    101760        50880.000000         0.082889133        20.219611272        -2.350229976        -2.267340843         0.004094661
    101770        50885.000000         0.082772497        20.191159615        -2.350113330        -2.267340833         0.004105310
    101780        50890.000000         0.082645754        20.160242348        -2.349986571        -2.267340818         0.004135028
    101790        50895.000000         0.082509441        20.126990880        -2.349850254        -2.267340813         0.004051690
    101800        50900.000000         0.082364846        20.091719121        -2.349705648        -2.267340802         0.004075114
    101810        50905.000000         0.082213037        20.054687351        -2.349553821        -2.267340785         0.004111944
    101820        50910.000000         0.082055262        20.016200319        -2.349396049        -2.267340788         0.004060276
    101830        50915.000000         0.081893012        19.976622000        -2.349233807        -2.267340795         0.004093779
    101840        50920.000000         0.081728602        19.936516493        -2.349069398        -2.267340796         0.004094090
    101850        50925.000000         0.081563490        19.896239791        -2.348904284        -2.267340793         0.004124667
    101860        50930.000000         0.081400051        19.856371089        -2.348740833        -2.267340782         0.004112474
    101870        50935.000000         0.081241061        19.817587714        -2.348581838        -2.267340778         0.004088198
    101880        50940.000000         0.081088927        19.780477041        -2.348429700        -2.267340773         0.004123014
    101890        50945.000000         0.080945562        19.745504978        -2.348286332        -2.267340771         0.004110681
    101900        50950.000000         0.080813248        19.713228873        -2.348154011        -2.267340763         0.004095891
    101910        50955.000000         0.080693575        19.684036463        -2.348034325        -2.267340750         0.004087708
    101920        50960.000000         0.080588458        19.658394637        -2.347929209        -2.267340751         0.004168790
    101930        50965.000000         0.080499687        19.636740220        -2.347840443        -2.267340756         0.004069414
    101940        50970.000000         0.080428481        19.619370503        -2.347769258        -2.267340778         0.004105773
    101950        50975.000000         0.080375635        19.606479666        -2.347716407        -2.267340772         0.004112454
    101960        50980.000000         0.080341256        19.598093369        -2.347682029        -2.267340773         0.004079122
    101970        50985.000000         0.080325383        19.594221260        -2.347666164        -2.267340781         0.004133904
    101980        50990.000000         0.080327760        19.594801093        -2.347668536        -2.267340776         0.004074333
    101990        50995.000000         0.080347249        19.599555222        -2.347688026        -2.267340777         0.004141068
    102000        51000.000000         0.080382978        19.608270782        -2.347723753        -2.267340775         0.004102265
    102010        51005.000000         0.080433453        19.620583439        -2.347774220        -2.267340767         0.004085203
    102020        51010.000000         0.080497425        19.636188571        -2.347838199        -2.267340774         0.004068912
    102030        51015.000000         0.080572837        19.654584203        -2.347913613        -2.267340776         0.004086065
    102040        51020.000000         0.080658009        19.675360597        -2.347998774        -2.267340765         0.004082949
    102050        51025.000000         0.080750590        19.697944486        -2.348091346        -2.267340756         0.004151369
    102060        51030.000000         0.080848725        19.721883152        -2.348189502        -2.267340777         0.004086505
    102070        51035.000000         0.080950815        19.746786410        -2.348291589        -2.267340774         0.004140356
    102080        51040.000000         0.081055149        19.772237336        -2.348395917        -2.267340768         0.004079501
    102090        51045.000000         0.081160555        19.797949631        -2.348501332        -2.267340777         0.004112063
    102100        51050.000000         0.081266457        19.823782849        -2.348607246        -2.267340789         0.004069163
    102110        51055.000000         0.081371772        19.849472909        -2.348712567        -2.267340794         0.004197223
    102120        51060.000000         0.081475457        19.874765321        -2.348816243        -2.267340786         0.004095693
    102130        51065.000000         0.081576686        19.899458679        -2.348917481        -2.267340795         0.004090964
    102140        51070.000000         0.081675391        19.923536448        -2.349016192        -2.267340800         0.004074141
    102150        51075.000000         0.081771646        19.947016468        -2.349112463        -2.267340816         0.004091535
    102160        51080.000000         0.081864990        19.969786222        -2.349205810        -2.267340820         0.004097446
    102170        51085.000000         0.081955296        19.991815248        -2.349296102        -2.267340805         0.004094430
    102180        51090.000000         0.082042529        20.013094492        -2.349383331        -2.267340802         0.004082117
    102190        51095.000000         0.082126919        20.033680173        -2.349467706        -2.267340787         0.004124898
    102200        51100.000000         0.082208581        20.053600303        -2.349549367        -2.267340786         0.004077658
    102210        51105.000000         0.082287468        20.072843752        -2.349628244        -2.267340776         0.004172207
    102220        51110.000000         0.082363801        20.091464050        -2.349704570        -2.267340769         0.004047520
    102230        51115.000000         0.082437370        20.109410211        -2.349778146        -2.267340776         0.004101824
    102240        51120.000000         0.082508014        20.126642866        -2.349848778        -2.267340764         0.004080354
    102250        51125.000000         0.082575174        20.143025398        -2.349915949        -2.267340775         0.004102135
    102260        51130.000000         0.082639010        20.158597290        -2.349979769        -2.267340759         0.004100943
    102270        51135.000000         0.082699670        20.173394397        -2.350040402        -2.267340733         0.004072338
    102280        51140.000000         0.082756876        20.187349164        -2.350097610        -2.267340733         0.004088559