#     Step Nr.          Time[fs]        Kin.[a.u.]          Temp[K]            Pot.[a.u.]        Cons Qty[a.u.]        UsedTime[s]
         0            0.000000         0.081988849        20.000000000        -2.429146990        -2.347158141         0.000000000
        10            5.000000         0.081789288        19.951319945        -2.428993897        -2.347158140         0.006634217
        20           10.000000         0.081472593        19.874066795        -2.428535615        -2.347158138         0.006687968
        30           15.000000         0.080672570        19.678912597        -2.427775813        -2.347158134         0.006670806
        40           20.000000         0.079534879        19.401389200        -2.426721588        -2.347158123         0.006637443
        50           25.000000         0.078452398        19.137333672        -2.425380853        -2.347158118         0.007896000
        60           30.000000         0.076721590        18.715127993        -2.423766037        -2.347158102         0.007962525
        70           35.000000         0.074532642        18.181165563        -2.421896600        -2.347158099         0.008046323
        80           40.000000         0.072328586        17.643517678        -2.419792840        -2.347158051         0.007947166
        90           45.000000         0.070038337        17.084844444        -2.417472450        -2.347158017         0.007816549
       100           50.000000         0.067927441        16.569921894        -2.414949569        -2.347158003         0.007702877
       110           55.000000         0.065268597        15.921335131        -2.412246412        -2.347158002         0.006610683
       120           60.000000         0.062378882        15.216430617        -2.409393002        -2.347157974         0.006627263
       130           65.000000         0.059447573        14.501380070        -2.406414876        -2.347157959         0.006610612
       140           70.000000         0.056570105        13.799463204        -2.403333718        -2.347157934         0.006594432
       150           75.000000         0.053414925        13.029802455        -2.400178763        -2.347157908         0.006658232
       160           80.000000         0.050169042        12.238015967        -2.396984159        -2.347157887         0.006617084
       170           85.000000         0.047142585        11.499755253        -2.393775873        -2.347157865         0.006565959
       180           90.000000         0.043842627        10.694778045        -2.390588882        -2.347157848         0.006594903
       190           95.000000         0.040791466         9.950491055        -2.387452847        -2.347157830         0.006577861
       200          100.000000         0.037897606         9.244575719        -2.384395441        -2.347157813         0.006562221
       210          105.000000         0.035155117         8.575584999        -2.381439165        -2.347157800         0.006578562
       220          110.000000         0.032222888         7.860309963        -2.378618936        -2.347157789         0.006516215
       230          115.000000         0.029749514         7.256965833        -2.375962109        -2.347157777         0.006566800
       240          120.000000         0.027449317         6.695865998        -2.373483964        -2.347157770         0.006563975
       250          125.000000         0.025285389         6.168006828        -2.371209850        -2.347157758         0.006589082
       260          130.000000         0.023408407         5.710144122        -2.369157183        -2.347157744         0.006548447
       270          135.000000         0.021784912         5.314115889        -2.367337441        -2.347157739         0.006583291
       280          140.000000         0.020318138         4.956317342        -2.365765951        -2.347157732         0.006481509
       290          145.000000         0.019083036         4.655031997        -2.364452516        -2.347157732         0.006127794
       300          150.000000         0.018076748         4.409562671        -2.363402331        -2.347157735         0.005881691
       310          155.000000         0.017330926         4.227630072        -2.362617349        -2.347157735         0.005618547
       320          160.000000         0.017051763         4.159532157        -2.362093367        -2.347157739         0.005366161
       330          165.000000         0.016913131         4.125714887        -2.361823589        -2.347157743         0.005296562
       340          170.000000         0.017108071         4.173267812        -2.361799923        -2.347157746         0.004972852
       350          175.000000         0.017487382         4.265795223        -2.362010164        -2.347157756         0.004968124
       360          180.000000         0.018099503         4.415113243        -2.362438784        -2.347157769         0.004884597
       370          185.000000         0.018837386         4.595109375        -2.363068780        -2.347157779         0.005045759
       380          190.000000         0.019783177         4.825821367        -2.363880150        -2.347157787         0.004844051
       390          195.000000         0.020808159         5.075851080        -2.364850668        -2.347157801         0.004823661
       400          200.000000         0.022030522         5.374028949        -2.365958109        -2.347157817         0.004840674
       410          205.000000         0.023342309         5.694020476        -2.367178838        -2.347157834         0.004970868
       420          210.000000         0.024958096         6.088168454        -2.368492861        -2.347157841         0.004867484
       430          215.000000         0.026577861         6.483286662        -2.369877803        -2.347157852         0.004841986
       440          220.000000         0.028216650         6.883045683        -2.371307238        -2.347157869         0.004849642
       450          225.000000         0.029764356         7.260586373        -2.372757553        -2.347157884         0.004829122
       460          230.000000         0.031137691         7.595591594        -2.374204133        -2.347157890         0.004839212
       470          235.000000         0.032696730         7.975896869        -2.375630137        -2.347157907         0.004831186
       480          240.000000         0.034306714         8.368629110        -2.377017796        -2.347157917         0.004921556
       490          245.000000         0.035920655         8.762326792        -2.378352166        -2.347157931         0.004836345
       500          250.000000         0.037403631         9.124077495        -2.379618255        -2.347157933         0.004931775
       510          255.000000         0.038655089         9.429352799        -2.380801065        -2.347157942         0.004844449
       520          260.000000         0.039779992         9.703756591        -2.381889525        -2.347157949         0.004935281
       530          265.000000         0.041054242        10.014591548        -2.382876302        -2.347157958         0.004847777
       540          270.000000         0.042055631        10.258865965        -2.383755187        -2.347157959         0.005011566
       550          275.000000         0.042849077        10.452415880        -2.384521036        -2.347157963         0.004851725
       560          280.000000         0.043666167        10.651733123        -2.385171251        -2.347157959         0.004861854
       570          285.000000         0.044413004        10.833913277        -2.385706881        -2.347157945         0.004870120
       580          290.000000         0.044905230        10.953984715        -2.386128387        -2.347157946         0.004813943
       590          295.000000         0.044989984        10.974659220        -2.386438875        -2.347157943         0.004977431
       600          300.000000         0.045424183        11.080575861        -2.386643837        -2.347157940         0.004861102
       610          305.000000         0.045626189        11.129852175        -2.386749837        -2.347157938         0.004958826
       620          310.000000         0.045810627        11.174843217        -2.386764350        -2.347157933         0.004873184
       630          315.000000         0.045879289        11.191592493        -2.386695513        -2.347157926         0.005078721
       640          320.000000         0.045877338        11.191116394        -2.386552758        -2.347157916         0.004852036
       650          325.000000         0.045555746        11.112668664        -2.386346555        -2.347157904         0.005032855
       660          330.000000         0.045405811        11.076094149        -2.386087947        -2.347157906         0.004890447
       670          335.000000         0.045136738        11.010457669        -2.385787697        -2.347157913         0.004836986
       680          340.000000         0.044784991        10.924654085        -2.385458172        -2.347157901         0.004908992
       690          345.000000         0.044456369        10.844491486        -2.385111156        -2.347157896         0.004921105
       700          350.000000         0.044220380        10.786925354        -2.384757268        -2.347157893         0.004864167
       710          355.000000         0.044070762        10.750428327        -2.384406812        -2.347157878         0.004861122
       720          360.000000         0.043835205        10.692967529        -2.384069990        -2.347157872         0.004851985
       730          365.000000         0.043672996        10.653398910        -2.383755635        -2.347157871         0.004820727
       740          370.000000         0.043280587        10.557676377        -2.383472926        -2.347157866         0.004815326
       750          375.000000         0.043060051        10.503879940        -2.383230275        -2.347157862         0.004850944
       760          380.000000         0.042984886        10.485544437        -2.383033793        -2.347157864         0.004848940
       770          385.000000         0.043091159        10.511468121        -2.382888436        -2.347157868         0.004867434
       780          390.000000         0.043097713        10.513066844        -2.382798312        -2.347157859         0.004860090
       790          395.000000         0.043277706        10.556973576        -2.382766749        -2.347157861         0.004906920
       800          400.000000         0.043387446        10.583743169        -2.382795197        -2.347157859         0.004828591
       810          405.000000         0.043635449        10.644239932        -2.382884212        -2.347157871         0.004916285
       820          410.000000         0.043808593        10.686475934        -2.383033359        -2.347157874         0.004831227
       830          415.000000         0.044223470        10.787679240        -2.383240589        -2.347157869         0.004876110
       840          420.000000         0.044914233        10.956180734        -2.383502388        -2.347157875         0.004821649
       850          425.000000         0.045099119        11.001281090        -2.383814184        -2.347157889         0.004868026
       860          430.000000         0.045374583        11.068476592        -2.384170088        -2.347157883         0.004838100
       870          435.000000         0.046058353        11.235272480        -2.384565687        -2.347157887         0.004847356
       880          440.000000         0.046588389        11.364567154        -2.384993690        -2.347157885         0.004857847
       890          445.000000         0.047134537        11.497792075        -2.385446725        -2.347157897         0.004895377
       900          450.000000         0.047812576        11.663190003        -2.385916439        -2.347157911         0.004830244
       910          455.000000         0.048297958        11.781591784        -2.386394564        -2.347157902         0.004845002
       920          460.000000         0.048782650        11.899825395        -2.386873213        -2.347157909         0.005010111
       930          465.000000         0.049629757        12.106465106        -2.387343245        -2.347157923         0.004870910
       940          470.000000         0.050202194        12.246102839        -2.387796353        -2.347157926         0.004831987
       950          475.000000         0.050610480        12.345698443        -2.388223622        -2.347157920         0.004836314
       960          480.000000         0.051148249        12.476879366        -2.388617718        -2.347157927         0.004824714
       970          485.000000         0.051702309        12.612034221        -2.388971154        -2.347157923         0.004931695
       980          490.000000         0.052034415        12.693046768        -2.389276309        -2.347157921         0.004855782
       990          495.000000         0.052512922        12.809771768        -2.389526693        -2.347157917         0.004911317
      1000          500.000000         0.052833897        12.888068892        -2.389717178        -2.347157906         0.004815285
      1010          505.000000         0.052989098        12.925927941        -2.389842966        -2.347157887         0.004893954
      1020          510.000000         0.053241329        12.987456028        -2.389900316        -2.347157886         0.004875790
      1030          515.000000         0.053589699        13.072436009        -2.389886001        -2.347157895         0.004895326
      1040          520.000000         0.053461849        13.041248701        -2.389797453        -2.347157895         0.004835934
      1050          525.000000         0.053197268        12.976708077        -2.389634258        -2.347157894         0.004951481
      1060          530.000000         0.052861071        12.894697728        -2.389397809        -2.347157884         0.004855361
      1070          535.000000         0.052603037        12.831753989        -2.389089914        -2.347157890         0.004898682
      1080          540.000000         0.052414133        12.785673428        -2.388712745        -2.347157889         0.004836435
      1090          545.000000         0.052018391        12.689137917        -2.388269325        -2.347157883         0.004915785
      1100          550.000000         0.051340900        12.523873755        -2.387764145        -2.347157876         0.004826697
      1110          555.000000         0.050853727        12.405035037        -2.387202464        -2.347157862         0.004892822
      1120          560.000000         0.050079692        12.216220274        -2.386591803        -2.347157860         0.004832087
      1130          565.000000         0.049220197        12.006558791        -2.385939612        -2.347157852         0.004846656
      1140          570.000000         0.048448570        11.818331612        -2.385254171        -2.347157839         0.004843940
      1150          575.000000         0.047686887        11.632529823        -2.384542370        -2.347157831         0.004833500
      1160          580.000000         0.047119687        11.494169559        -2.383813593        -2.347157827         0.004855512
      1170          585.000000         0.046456615        11.332422844        -2.383073205        -2.347157822         0.004846675
      1180          590.000000         0.045687283        11.144755163        -2.382332734        -2.347157819         0.004832969
      1190          595.000000         0.045203234        11.026678573        -2.381599993        -2.347157811         0.004823321
      1200          600.000000         0.044462455        10.845976120        -2.380882528        -2.347157803         0.004852035
      1210          605.000000         0.043817040        10.688536349        -2.380190242        -2.347157795         0.004828390
      1220          610.000000         0.043217623        10.542317164        -2.379530635        -2.347157788         0.004862635
      1230          615.000000         0.042593007        10.389951153        -2.378912590        -2.347157782         0.004829603
      1240          620.000000         0.042183411        10.290036228        -2.378343184        -2.347157778         0.004847767
      1250          625.000000         0.041681980        10.167719361        -2.377828981        -2.347157778         0.004836796
      1260          630.000000         0.041354943        10.087943363        -2.377377002        -2.347157769         0.004831597
      1270          635.000000         0.041065269        10.017281428        -2.376991376        -2.347157755         0.004866552
      1280          640.000000         0.040825605         9.958818990        -2.376677807        -2.347157761         0.004859128
      1290          645.000000         0.040650482         9.916100268        -2.376439513        -2.347157768         0.004815225
      1300          650.000000         0.040637309         9.912886674        -2.376279567        -2.347157757         0.004838770
      1310          655.000000         0.040719149         9.932850479        -2.376199376        -2.347157763         0.004823421
      1320          660.000000         0.040777965         9.947197804        -2.376198923        -2.347157766         0.004844591
      1330          665.000000         0.040885924         9.973532864        -2.376278241        -2.347157759         0.004900025
      1340          670.000000         0.041245135        10.061157169        -2.376435930        -2.347157757         0.004868867
      1350          675.000000         0.041763001        10.187483045        -2.376669081        -2.347157761         0.004839241
      1360          680.000000         0.042272505        10.311769223        -2.376972936        -2.347157762         0.004855863
      1370          685.000000         0.042684113        10.412175116        -2.377342156        -2.347157769         0.004820666
      1380          690.000000         0.043106556        10.515224150        -2.377769612        -2.347157776         0.004817339
      1390          695.000000         0.043833997        10.692672793        -2.378249477        -2.347157775         0.004846434
      1400          700.000000         0.044650337        10.891807178        -2.378775537        -2.347157790         0.004817219
      1410          705.000000         0.045262795        11.041207624        -2.379339006        -2.347157805         0.004841575
      1420          710.000000         0.045951272        11.209151643        -2.379930571        -2.347157823         0.004840513
      1430          715.000000         0.046679988        11.386911390        -2.380541528        -2.347157829         0.004837007
      1440          720.000000         0.047355131        11.551602674        -2.381162065        -2.347157838         0.004845654
      1450          725.000000         0.047916119        11.688447824        -2.381782945        -2.347157829         0.004841637
      1460          730.000000         0.048511579        11.833701661        -2.382395836        -2.347157826         0.004815747
      1470          735.000000         0.049313670        12.029360174        -2.382993028        -2.347157825         0.004866432
      1480          740.000000         0.049826706        12.154508060        -2.383565880        -2.347157829         0.004832828
      1490          745.000000         0.050334978        12.278493620        -2.384106281        -2.347157828         0.004823341
      1500          750.000000         0.050856227        12.405644773        -2.384607365        -2.347157830         0.004842207
      1510          755.000000         0.051591807        12.585079062        -2.385063647        -2.347157832         0.004827439
      1520          760.000000         0.051900414        12.660359282        -2.385467908        -2.347157829         0.004852095
      1530          765.000000         0.052036259        12.693496503        -2.385814467        -2.347157834         0.004842858
      1540          770.000000         0.052272084        12.751022746        -2.386099272        -2.347157834         0.004839762
      1550          775.000000         0.052759501        12.869921053        -2.386320697        -2.347157830         0.004826797
      1560          780.000000         0.052981508        12.924076418        -2.386475465        -2.347157820         0.004844000
      1570          785.000000         0.053255883        12.991006254        -2.386560958        -2.347157818         0.004816309
      1580          790.000000         0.053476863        13.044911220        -2.386576548        -2.347157812         0.004839382
      1590          795.000000         0.053428926        13.033217716        -2.386522126        -2.347157813         0.004894845
      1600          800.000000         0.053304320        13.002821917        -2.386398886        -2.347157793         0.004841826
      1610          805.000000         0.053160740        12.967797526        -2.386209092        -2.347157797         0.004901187
      1620          810.000000         0.052881838        12.899763368        -2.385955056        -2.347157799         0.004826969
      1630          815.000000         0.052466452        12.798436082        -2.385641185        -2.347157788         0.004852816
      1640          820.000000         0.052020600        12.689676870        -2.385272618        -2.347157787         0.004824914
      1650          825.000000         0.051711138        12.614187908        -2.384854827        -2.347157781         0.004868096
      1660          830.000000         0.051541091        12.572707455        -2.384391405        -2.347157781         0.004841684
      1670          835.000000         0.051267691        12.506015507        -2.383888413        -2.347157775         0.004830836
      1680          840.000000         0.050817156        12.396114076        -2.383351560        -2.347157765         0.004821138
      1690          845.000000         0.050388568        12.291565996        -2.382787479        -2.347157760         0.004842296
      1700          850.000000         0.049852695        12.160847527        -2.382203683        -2.347157765         0.004882292
      1710          855.000000         0.049462105        12.065568768        -2.381607920        -2.347157754         0.004839571
      1720          860.000000         0.048787206        11.900936959        -2.381006750        -2.347157752         0.004816569
      1730          865.000000         0.048190976        11.755495045        -2.380409067        -2.347157745         0.004863407
      1740          870.000000         0.047623110        11.616972484        -2.379822548        -2.347157741         0.004829874
      1750          875.000000         0.047217908        11.518129168        -2.379252774        -2.347157730         0.004839030
      1760          880.000000         0.046986448        11.461667936        -2.378706769        -2.347157726         0.004847387
      1770          885.000000         0.046447695        11.330246732        -2.378189728        -2.347157718         0.004800208
      1780          890.000000         0.045864674        11.188027246        -2.377710007        -2.347157719         0.004880768
      1790          895.000000         0.045697730        11.147303719        -2.377272210        -2.347157717         0.004829141
      1800          900.000000         0.045251592        11.038474742        -2.376880868        -2.347157702         0.004842978
      1810          905.000000         0.045114506        11.005034632        -2.376540437        -2.347157701         0.004863356
      1820          910.000000         0.044864557        10.944063071        -2.376254259        -2.347157707         0.004831025
      1830          915.000000         0.044855340        10.941814795        -2.376025421        -2.347157697         0.004851664
      1840          920.000000         0.044923075        10.958337846        -2.375855086        -2.347157690         0.004845062
      1850          925.000000         0.044644085        10.890282201        -2.375744356        -2.347157692         0.004822739
      1860          930.000000         0.044540989        10.865133326        -2.375694360        -2.347157693         0.004863937
      1870          935.000000         0.044932126        10.960545672        -2.375704278        -2.347157692         0.004812390
      1880          940.000000         0.045055261        10.990582695        -2.375771851        -2.347157701         0.004843018
      1890          945.000000         0.045724694        11.153881081        -2.375894727        -2.347157701         0.004853187
      1900          950.000000         0.045894132        11.195213146        -2.376068724        -2.347157697         0.004826858
      1910          955.000000         0.046347701        11.305854638        -2.376289852        -2.347157697         0.004860352
      1920          960.000000         0.046678538        11.386557706        -2.376553720        -2.347157705         0.004843699
      1930          965.000000         0.047158124        11.503545843        -2.376855187        -2.347157706         0.004864769
      1940          970.000000         0.047631174        11.618939500        -2.377188420        -2.347157716         0.004827008
      1950          975.000000         0.048049990        11.721103630        -2.377547145        -2.347157717         0.004823661
      1960          980.000000         0.048298076        11.781620751        -2.377925560        -2.347157713         0.004811038
      1970          985.000000         0.048711078        11.882366513        -2.378318292        -2.347157704         0.004833550
      1980          990.000000         0.049163498        11.992727993        -2.378719698        -2.347157705         0.004859579
      1990          995.000000         0.049814115        12.151436637        -2.379123187        -2.347157707         0.004826517
      2000         1000.000000         0.050346289        12.281252759        -2.379523255        -2.347157702         0.004888955
      2010         1005.000000         0.050892551        12.414505508        -2.379913337        -2.347157707         0.004844330
      2020         1010.000000         0.051264410        12.505215088        -2.380286924        -2.347157712         0.004864148
      2030         1015.000000         0.051762185        12.626640204        -2.380638811        -2.347157724         0.004844542
      2040         1020.000000         0.052090727        12.706783277        -2.380964216        -2.347157732         0.004889145
      2050         1025.000000         0.052344942        12.768795482        -2.381258945        -2.347157738         0.004827769
      2060         1030.000000         0.052633405        12.839161886        -2.381519661        -2.347157726         0.004868184
      2070         1035.000000         0.052840127        12.889588723        -2.381744190        -2.347157727         0.004839452
      2080         1040.000000         0.052814365        12.883304459        -2.381929799        -2.347157728         0.004874287
      2090         1045.000000         0.053048418        12.940398322        -2.382075910        -2.347157725         0.004831927
      2100         1050.000000         0.053235398        12.986009220        -2.382181682        -2.347157730         0.004876861
      2110         1055.000000         0.053232567        12.985318634        -2.382246611        -2.347157742         0.004835664
      2120         1060.000000         0.053375979        13.020302091        -2.382271461        -2.347157749         0.004882642
      2130         1065.000000         0.053540808        13.060509649        -2.382257265        -2.347157745         0.004841345
      2140         1070.000000         0.053423002        13.031772521        -2.382204675        -2.347157739         0.004826667
      2150         1075.000000         0.053573064        13.068378180        -2.382116275        -2.347157736         0.004893833
      2160         1080.000000         0.053705980        13.100801019        -2.381993670        -2.347157724         0.004833069
      2170         1085.000000         0.053414620        13.029727994        -2.381839595        -2.347157724         0.004862504
      2180         1090.000000         0.053204587        12.978493332        -2.381658229        -2.347157714         0.004831496
      2190         1095.000000         0.053151041        12.965431603        -2.381453566        -2.347157708         0.004839811
      2200         1100.000000         0.053089051        12.950310148        -2.381229524        -2.347157714         0.004875378
      2210         1105.000000         0.053133177        12.961074019        -2.380989063        -2.347157720         0.004852646
      2220         1110.000000         0.053053951        12.941747958        -2.380736027        -2.347157716         0.004847976
      2230         1115.000000         0.052774168        12.873499005        -2.380473967        -2.347157724         0.004820174
      2240         1120.000000         0.052685098        12.851771616        -2.380207015        -2.347157710         0.004895848
      2250         1125.000000         0.052388866        12.779509939        -2.379939629        -2.347157705         0.004832649
      2260         1130.000000         0.052184621        12.729687311        -2.379675634        -2.347157687         0.004853548
      2270         1135.000000         0.051855678        12.649446500        -2.379419690        -2.347157680         0.004833199