38
Atoms. Timestep: 0
Ar 1.668 1.873 0
Ar 5.651 1.903 0.003
Ar 1.878 5.656 -0.01
Ar -1.867 1.863 -0.007
Ar -5.65 1.873 -0.014
Ar -1.898 5.645 -0.014
Ar -1.857 -1.873 0
Ar -5.64 -1.903 -0.003
Ar -1.867 -5.656 0.01
Ar 1.878 -1.863 0.007
Ar 5.661 -1.873 0.014
Ar 1.909 -5.645 0.014
Ar 0.002 0.007 2.642
Ar 3.751 0.017 2.659
Ar -3.75 -0.003 2.646
Ar -0.008 3.756 2.646
Ar 0.012 -3.745 2.659
Ar 3.761 3.786 2.656
Ar -3.778 3.766 2.646
Ar -3.757 -3.773 2.663
Ar 3.781 -3.752 2.673
Ar 0.009 -0.007 -2.642
Ar 3.761 0.003 -2.646
Ar -3.74 -0.017 -2.659
Ar -0.002 3.746 -2.659
Ar 0.019 -3.756 -2.646
Ar 3.768 3.773 -2.663
Ar -3.771 3.752 -2.673
Ar -3.75 -3.786 -2.656
Ar 3.788 -3.766 -2.646
Ar 1.871 1.897 5.329
Ar -1.888 1.886 5.325
Ar -1.878 -1.873 5.332
Ar 1.881 -1.863 5.339
Ar 1.888 1.873 -5.332
Ar -1.871 1.863 -5.339
Ar -1.861 -1.897 -5.329
Ar 1.898 -1.886 -5.325
38
Atoms. Timestep: 10000
Ar 1.93568 1.86328 0.0625398
Ar 5.71056 1.87375 0.104611
Ar 1.85641 5.62467 -0.0300043
Ar -1.81329 1.82004 -0.017842
Ar -5.86471 1.98397 -0.0144841
Ar -1.94721 5.58808 0.00400245
Ar -1.82958 -1.93079 -0.00260561
Ar -5.74889 -1.84408 0.0749876
Ar -1.87247 -5.67745 0.0279857
Ar 1.93352 -1.84227 -0.0143287
Ar 5.74843 -2.09687 0.00673283
Ar 1.99183 -5.48694 0.000798619
Ar 0.128788 0.0191791 2.66603
Ar 3.94644 -0.141574 2.74781
Ar -3.748 -0.108111 2.60841
Ar 0.0576746 3.7678 2.6386
Ar 0.0661818 -3.73575 2.64231
Ar 3.73689 3.80266 2.53634
Ar -3.86361 3.67629 2.55876
Ar -3.74418 -3.82553 2.63805
Ar 3.81207 -3.74569 2.76218
Ar -0.0076972 0.0459801 -2.76598
Ar 3.72355 0.070257 -2.5659
Ar -3.8376 -0.0202374 -2.53233
Ar 0.0563063 3.89481 -2.75026
Ar -0.0362611 -3.77463 -2.74889
Ar 3.81547 3.80892 -2.57743
Ar -3.91727 3.70534 -2.74639
Ar -3.8466 -3.74775 -2.55569
Ar 3.81413 -3.69238 -2.85419
Ar 1.8403 2.08518 5.50919
Ar -1.88816 1.87614 5.28423
Ar -1.90954 -1.98142 5.35349
Ar 1.76991 -1.71677 5.38714
Ar 2.04881 1.82596 -5.36282
Ar -1.92011 1.8216 -5.40362
Ar -2.006 -1.90271 -5.36563
Ar 1.81024 -1.88197 -5.30581
38
Atoms. Timestep: 20000
Ar 1.86093 1.77806 -0.000252552
Ar 5.70902 1.76462 0.018644
Ar 1.76468 5.83915 -0.0245557
Ar -1.91383 1.8663 -0.015725
Ar -5.59698 1.94338 0.00116878
Ar -2.0265 5.54006 -0.0985674
Ar -1.88438 -1.86152 0.119349
Ar -5.71721 -1.77133 -0.0751313
Ar -1.67842 -5.85963 0.00968567
Ar 1.82361 -1.92189 0.0332292
Ar 5.49506 -1.95093 -0.175868
Ar 2.07785 -5.76345 -0.0278813
Ar 0.0490892 -0.0470512 2.71732
Ar 3.77725 0.00498437 2.80733
Ar -3.76296 0.0534992 2.71504
Ar -0.0844038 3.67522 2.59459
Ar -0.116451 -3.78343 2.6721
Ar 3.84274 3.92272 2.50404
Ar -3.93564 3.78421 2.87786
Ar -3.81208 -3.8178 2.48081
Ar 3.72667 -3.83503 2.86065
Ar 0.0397714 0.0737448 -2.66654
Ar 3.83346 0.0106062 -2.84724
Ar -3.68647 -0.034634 -2.7543
Ar -0.0179713 3.7736 -2.57731
Ar 0.00742293 -3.74895 -2.62835
Ar 3.81101 3.87929 -2.59442
Ar -3.82411 3.82169 -2.84058
Ar -3.64941 -3.73193 -2.48553
Ar 3.65468 -3.75728 -2.76597
Ar 2.10541 2.11144 5.37623
Ar -1.75189 1.82809 5.335
Ar -1.97044 -2.00184 5.35382
Ar 1.81408 -1.75957 5.43803
Ar 1.85151 1.99384 -5.31515
Ar -1.80448 1.80784 -5.27645
Ar -1.85161 -2.03959 -5.37421
Ar 1.843 -1.78551 -5.37085
38
Atoms. Timestep: 30000
Ar 1.82319 1.92755 0.0448056
Ar 5.77875 1.88683 0.101753
Ar 1.7086 5.60049 0.0474983
Ar -1.79285 1.81776 -0.0563908
Ar -5.68508 2.05158 -0.0175945
Ar -2.05494 5.60392 -0.149033
Ar -1.94143 -1.9446 0.0473802
Ar -5.83897 -1.85585 0.0945841
Ar -1.80912 -5.70406 -0.0722799
Ar 1.843 -1.81442 -0.020437
Ar 5.61911 -1.88604 0.0330895
Ar 2.06853 -5.50842 -0.00900231
Ar 0.145765 -0.0692707 2.65258
Ar 3.78508 0.115164 2.59538
Ar -3.69777 -0.0571765 2.6996
Ar -0.0110766 3.74149 2.7266
Ar 0.00633501 -3.78345 2.58953
Ar 3.95037 3.86294 2.56691
Ar -3.80748 3.68272 2.65862
Ar -3.83544 -3.95279 2.75759
Ar 3.58881 -3.55643 2.84664
Ar 0.0505459 -0.0689321 -2.73037
Ar 3.71795 0.0856095 -2.62591
Ar -3.70031 -0.00372626 -2.69167
Ar 0.0785907 3.71264 -2.75994
Ar -0.0201159 -3.7752 -2.72789
Ar 3.86972 3.71069 -2.5021
Ar -3.68126 3.82444 -2.8785
Ar -3.92055 -3.87891 -2.51452
Ar 3.7269 -3.69627 -2.86475
Ar 2.04887 1.92471 5.28436
Ar -1.87938 1.80746 5.50759
Ar -1.95201 -1.98668 5.36291
Ar 1.8191 -1.80271 5.55894
Ar 2.03757 2.00577 -5.44278
Ar -1.82149 1.81635 -5.358
Ar -1.97417 -1.95662 -5.33105
Ar 1.75866 -1.87556 -5.42417
38
Atoms. Timestep: 40000
Ar 1.83237 1.83674 0.0161187
Ar 5.63967 1.93778 -0.00774783
Ar 1.70942 5.76851 0.0317171
Ar -1.84613 1.88656 -0.011539
Ar -5.60635 1.96424 0.0787142
Ar -2.05932 5.62121 -0.157982
Ar -1.89854 -1.7946 0.0605618
Ar -5.62916 -1.81074 0.0458875
Ar -1.92404 -5.77462 0.0602385
Ar 2.01882 -1.76623 -0.0384567
Ar 5.75737 -1.7882 0.0550362
Ar 1.977 -5.65889 -0.0302077
Ar 0.0339214 0.000467289 2.63626
Ar 3.80405 -0.0394871 2.76053
Ar -3.76442 -0.0103505 2.78731
Ar -0.0836025 3.76765 2.65702
Ar 0.0382701 -3.75379 2.55597
Ar 3.72137 3.82126 2.53327
Ar -3.73679 3.77952 2.81472
Ar -3.71729 -3.82689 2.60867
Ar 3.5727 -3.80695 2.64222
Ar -0.0190452 -0.00291403 -2.65838
Ar 3.89421 -0.0562562 -2.59932
Ar -3.82408 0.00207911 -2.78857
Ar 0.0122677 3.74298 -2.66877
Ar -0.075436 -3.74212 -2.63883
Ar 3.74496 3.82547 -2.53197
Ar -3.92688 3.7876 -2.7933
Ar -3.91829 -3.75569 -2.63557
Ar 3.79287 -3.94444 -2.65301
Ar 1.90915 2.01756 5.32031
Ar -1.85436 1.85122 5.42793
Ar -1.7368 -1.93817 5.24132
Ar 1.88459 -1.8252 5.36708
Ar 2.04486 1.76593 -5.22991
Ar -1.86463 1.78519 -5.41282
Ar -1.93286 -1.79532 -5.52482
Ar 2.03217 -2.07011 -5.31968
38
Atoms. Timestep: 50000
Ar 1.84532 2.00191 -0.0147998
Ar 5.70988 1.8884 0.10644
Ar 1.93992 5.70955 -0.0703708
Ar -1.89754 1.88348 -0.0457056
Ar -5.68518 1.76161 -0.0855443
Ar -1.83079 5.64942 -0.0798282
Ar -1.96638 -1.86195 -0.0108069
Ar -5.92398 -2.00227 0.152856
Ar -1.76767 -5.72513 -0.0142599
Ar 1.76169 -1.78623 0.0409047
Ar 5.70401 -1.81534 -0.0586994
Ar 1.88631 -5.69721 0.0526588
Ar -0.107118 0.0164401 2.67976
Ar 3.6806 0.0162042 2.58525
Ar -3.79014 -0.0258 2.61966
Ar -0.0487912 3.71228 2.61909
Ar -0.027746 -3.71893 2.64754
Ar 3.72805 3.71598 2.69611
Ar -3.80664 3.65111 2.48994
Ar -3.63853 -3.66399 2.71655
Ar 3.88352 -3.70837 2.52339
Ar -0.0188824 -0.0196778 -2.61836
Ar 3.69468 0.03883 -2.54293
Ar -3.77387 -0.0499822 -2.65036
Ar 0.0467471 3.86648 -2.70769
Ar -0.0219354 -3.7021 -2.58831
Ar 3.81674 3.86159 -2.62623
Ar -3.73362 3.70473 -2.67824
Ar -3.77955 -3.81732 -2.55734
Ar 3.72909 -3.77386 -2.66764
Ar 1.89708 1.82955 5.33263
Ar -1.91131 1.91925 5.31792
Ar -1.83714 -1.85614 5.38165
Ar 1.93918 -1.90921 5.26058
Ar 2.10848 1.85333 -5.29821
Ar -1.7079 1.91031 -5.31736
Ar -1.90327 -1.94738 -5.28701
Ar 1.80871 -1.90852 -5.30324
38
Atoms. Timestep: 60000
Ar 1.81584 1.90409 0.0213544
Ar 5.67597 1.86651 -0.0631476
Ar 1.9182 5.69815 -0.049368
Ar -1.95459 1.87355 -0.044766
Ar -5.80325 1.74704 -0.0183835
Ar -1.77308 5.69731 -0.130925
Ar -1.90092 -1.74625 0.0567105
Ar -5.62781 -1.97709 0.00756415
Ar -1.82866 -5.55959 -0.0411544
Ar 1.76554 -1.77441 0.0525054
Ar 5.61946 -1.86923 0.0610183
Ar 1.83144 -5.63572 0.126615
Ar -0.089244 0.088394 2.68576
Ar 3.63769 0.0305908 2.62919
Ar -3.81294 -0.0583294 2.70744
Ar 0.111906 3.92715 2.69009
Ar 0.0395141 -3.72157 2.65977
Ar 3.77904 3.73236 2.58293
Ar -3.68441 3.7941 2.62994
Ar -3.78134 -3.94457 2.65959
Ar 3.86183 -3.77811 2.60781
Ar -0.0914597 0.0512669 -2.60211
Ar 3.57976 0.0425197 -2.59882
Ar -3.70433 -0.0428718 -2.72047
Ar 0.0202736 3.68427 -2.67628
Ar 0.120078 -3.79784 -2.65897
Ar 3.8665 3.75313 -2.81321
Ar -3.8917 3.72122 -2.6436
Ar -3.67242 -3.83676 -2.67156
Ar 3.7744 -3.77599 -2.53942
Ar 1.9309 1.94405 5.39164
Ar -1.83987 1.83767 5.48047
Ar -1.88624 -1.92684 5.24956
Ar 1.85095 -1.8602 5.41461
Ar 1.88049 1.90767 -5.30505
Ar -1.92875 1.85596 -5.35627
Ar -1.77114 -1.9808 -5.49694
Ar 1.9644 -1.86984 -5.28413
38
Atoms. Timestep: 70000
Ar 1.82503 1.8817 -0.0237494
Ar 5.57443 1.94002 0.113303
Ar 1.98729 5.67724 5.61402e-05
Ar -1.97046 1.93668 0.00214351
Ar -5.79691 1.81706 -0.144382
Ar -1.84725 5.68374 -0.112735
Ar -1.79535 -1.90726 0.0696005
Ar -5.54133 -1.92598 0.0155355
Ar -1.90917 -5.66437 0.0288665
Ar 1.98002 -1.85956 0.0215765
Ar 5.68829 -1.79521 0.0508255
Ar 1.84264 -5.81471 -0.117969
Ar -0.0232027 -0.00384056 2.71272
Ar 3.74995 0.0115552 2.70176
Ar -3.83557 0.0611109 2.67977
Ar -0.061115 3.76356 2.63763
Ar -0.00591098 -3.77418 2.71833
Ar 3.6164 3.72591 2.76494
Ar -3.78223 3.87755 2.6229
Ar -3.77629 -3.75007 2.70957
Ar 3.80243 -3.8295 2.53977
Ar 0.0108415 0.0320874 -2.6426
Ar 3.75976 0.0518879 -2.56972
Ar -3.65832 -0.0679421 -2.63571
Ar -0.058778 3.71578 -2.65273
Ar 0.0117436 -3.65071 -2.58752
Ar 3.81992 3.77099 -2.79407
Ar -3.84823 3.62674 -2.66853
Ar -3.69415 -3.81204 -2.68161
Ar 3.77956 -3.72682 -2.7382
Ar 1.90755 1.88669 5.50031
Ar -1.89266 2.02358 5.4281
Ar -1.90559 -1.74009 5.3199
Ar 1.94862 -1.88221 5.40623
Ar 1.99006 1.84321 -5.42736
Ar -1.83344 1.79361 -5.42644
Ar -1.86636 -2.01416 -5.44149
Ar 1.80976 -1.90108 -5.37903
38
Atoms. Timestep: 80000
Ar 1.76027 1.81717 0.0364664
Ar 5.57064 1.99459 -0.0296522
Ar 1.85335 5.53972 -0.0840123
Ar -1.9033 1.96095 -0.0464974
Ar -5.68891 1.84662 -0.127142
Ar -1.80602 5.63572 -0.011813
Ar -1.81985 -1.74756 0.000354476
Ar -5.69614 -1.92986 0.0195616
Ar -1.86862 -5.52415 0.0127214
Ar 1.86815 -1.8999 0.0736144
Ar 5.78465 -1.81329 -0.0256496
Ar 1.88716 -5.81809 0.0805654
Ar 0.00456208 -0.0859978 2.73955
Ar 3.86259 0.138073 2.67633
Ar -3.7669 0.0252239 2.68652
Ar -0.166319 3.72915 2.76005
Ar 0.0195987 -3.78598 2.73112
Ar 3.79041 3.8715 2.59415
Ar -3.91922 3.70967 2.61397
Ar -3.81795 -3.6986 2.54639
Ar 3.80529 -3.68537 2.53867
Ar 0.00691046 -0.0593674 -2.67191
Ar 3.75222 -0.0740871 -2.52499
Ar -3.75863 0.0974575 -2.79742
Ar -0.0175172 3.66235 -2.81836
Ar 0.0528746 -3.84464 -2.58771
Ar 3.71463 3.74011 -2.76707
Ar -3.80062 3.8607 -2.66927
Ar -3.6223 -3.64593 -2.63311
Ar 3.86764 -3.80682 -2.45698
Ar 1.88421 1.91925 5.38031
Ar -1.97249 1.74469 5.48685
Ar -1.94903 -1.94095 5.53674
Ar 1.93989 -1.89984 5.29379
Ar 1.9671 1.86985 -5.5216
Ar -1.90929 1.87927 -5.44539
Ar -1.85939 -1.86984 -5.31856
Ar 1.95237 -1.91076 -5.27061
38
Atoms. Timestep: 90000
Ar 1.81657 1.81075 -0.0296911
Ar 5.6655 1.77907 0.0682139
Ar 1.893 5.79588 -0.0973937
Ar -1.95216 1.91922 -0.0256959
Ar -5.64903 1.69673 -0.0885524
Ar -1.95681 5.81815 -0.0419302
Ar -1.82425 -1.85482 -0.00943098
Ar -5.68989 -1.99858 -0.0140029
Ar -1.80999 -5.60148 -0.0352998
Ar 1.87469 -1.9431 0.00809169
Ar 5.73158 -1.89516 0.0316966
Ar 1.83666 -5.70343 0.0902502
Ar -0.0423187 0.0440288 2.68939
Ar 3.64518 0.0214847 2.64759
Ar -3.74408 0.0199199 2.68425
Ar -0.0424701 3.78711 2.4655
Ar 0.0878582 -3.78684 2.81297
Ar 3.78765 3.75438 2.60869
Ar -3.84048 3.78768 2.53959
Ar -3.66477 -3.78667 2.64047
Ar 3.88664 -3.80317 2.61518
Ar -0.0760419 -0.00391691 -2.6211
Ar 3.6898 -0.0129732 -2.63826
Ar -3.77382 -0.0328276 -2.67972
Ar 0.0387534 3.75864 -2.52616
Ar 0.0175492 -3.67337 -2.72221
Ar 3.93891 3.73302 -2.56815
Ar -3.83763 3.76181 -2.7092
Ar -3.69943 -3.82795 -2.62895
Ar 3.74815 -3.86273 -2.53952
Ar 1.80237 1.92517 5.267
Ar -1.96742 1.96982 5.22908
Ar -1.79454 -1.77311 5.41443
Ar 1.90667 -1.85412 5.4242
Ar 1.88475 1.91957 -5.23249
Ar -1.94014 1.88951 -5.24913
Ar -1.91081 -1.84649 -5.41824
Ar 1.96579 -1.93018 -5.36145
38
Atoms. Timestep: 100000
Ar 1.83278 1.91785 -0.0414804
Ar 5.59132 1.96526 0.0412623
Ar 1.83303 5.63928 0.00735034
Ar -1.87042 1.78905 -0.0198201
Ar -5.70916 1.89262 -0.0465912
Ar -1.85323 5.76358 0.0265095
Ar -1.88777 -1.87814 0.0191924
Ar -5.54156 -1.89824 -0.00149196
Ar -1.95217 -5.6966 -0.0794046
Ar 1.89118 -1.88673 -0.0311151
Ar 5.6964 -1.7428 -0.00145199
Ar 1.84876 -5.58437 0.0134751
Ar -0.0774026 0.00644196 2.59609
Ar 3.76856 0.0526412 2.72019
Ar -3.91318 0.0428974 2.66005
Ar -0.0174241 3.8298 2.73415
Ar 0.130098 -3.78632 2.59069
Ar 3.6611 3.84758 2.59586
Ar -3.69109 3.83512 2.62405
Ar -3.68356 -3.78766 2.72832
Ar 3.95487 -3.75049 2.56523
Ar -0.00810943 -0.108247 -2.65703
Ar 3.79372 0.0767938 -2.57159
Ar -3.68479 -0.0102873 -2.74791
Ar 0.0290814 3.59097 -2.62104
Ar -0.077226 -3.8531 -2.67282
Ar 3.78661 3.78848 -2.68535
Ar -3.775 3.72164 -2.69915
Ar -3.93763 -3.75314 -2.71242
Ar 3.75726 -3.69426 -2.56937
Ar 1.85396 1.87314 5.45004
Ar -1.8898 1.91852 5.42182
Ar -1.99157 -1.803 5.33029
Ar 1.8693 -1.83493 5.31194
Ar 1.99989 1.84748 -5.28652
Ar -1.87274 1.65434 -5.37354
Ar -1.83657 -2.07229 -5.33734
Ar 1.97447 -1.91189 -5.28109
38
Atoms. Timestep: 110000
Ar 1.80848 1.85619 -0.0122244
Ar 5.66764 1.83117 -0.127964
Ar 1.78595 5.7203 -0.168571
Ar -1.92622 1.92113 0.021333
Ar -5.6259 1.80969 -0.0110424
Ar -1.87772 5.77888 0.0804755
Ar -1.92982 -1.83045 0.0545398
Ar -5.60668 -2.02383 -0.0868667
Ar -1.92338 -5.47045 0.0571581
Ar 1.88172 -1.90256 0.0795195
Ar 5.65014 -1.99404 0.0306804
Ar 1.98416 -5.57206 0.0256521
Ar 0.0358109 -0.0385173 2.67273
Ar 3.80459 0.0173319 2.62187
Ar -3.8774 -0.0842923 2.69567
Ar -0.0616396 3.82504 2.6482
Ar -0.00922718 -3.8164 2.79604
Ar 3.72074 3.67537 2.5352
Ar -3.81881 3.81451 2.56939
Ar -3.84033 -3.86241 2.8763
Ar 3.72245 -3.68874 2.79939
Ar -0.0640389 -0.00240483 -2.63443
Ar 3.79327 -0.0609556 -2.56776
Ar -3.84364 -0.0739568 -2.76153
Ar -0.0261257 3.67778 -2.64585
Ar 0.105216 -3.65613 -2.62651
Ar 3.89243 3.85947 -2.80614
Ar -3.8932 3.73369 -2.5536
Ar -3.61753 -3.86124 -2.93489
Ar 3.8674 -3.84877 -2.6117
Ar 1.86977 1.90648 5.25444
Ar -1.91358 1.86718 5.19066
Ar -1.88559 -1.89982 5.45
Ar 1.88524 -1.80066 5.43999
Ar 1.85593 1.82538 -5.29266
Ar -1.91155 1.99087 -5.29021
Ar -1.77369 -1.77863 -5.46372
Ar 2.09712 -1.84317 -5.30357
38
Atoms. Timestep: 120000
Ar 1.87214 1.91549 0.0299534
Ar 5.54052 2.14382 0.0998739
Ar 1.91671 5.61285 0.247013
Ar -1.85873 1.8195 -0.025336
Ar -5.60905 2.0065 -0.076175
Ar -1.90687 5.56705 -0.164178
Ar -1.89289 -2.02784 -0.000902644
Ar -5.63595 -1.72934 0.0317301
Ar -1.9681 -5.78617 0.00519708
Ar 1.85823 -1.83567 -0.0150196
Ar 5.80368 -1.71731 0.0190707
Ar 1.93234 -5.66355 -0.0152297
Ar 0.0378025 -0.080312 2.63379
Ar 3.85861 0.154726 2.74136
Ar -3.62699 0.00788396 2.5938
Ar -0.0307505 3.57906 2.72477
Ar 0.136791 -3.91451 2.67221
Ar 3.63242 3.9385 3.05152
Ar -3.72939 3.93092 2.61701
Ar -3.69555 -3.78041 2.65166
Ar 3.99631 -3.5949 2.65559
Ar 0.0251987 -0.0484987 -2.72457
Ar 3.78815 0.102503 -2.7172
Ar -3.66844 -0.0232293 -2.64922
Ar -0.00242491 3.69282 -2.71658
Ar -0.206955 -3.76784 -2.69184
Ar 3.79861 3.87998 -2.63033
Ar -3.70536 3.64558 -2.88622
Ar -4.03214 -3.92482 -2.65146
Ar 3.64364 -3.65689 -2.67799
Ar 1.70118 1.81052 5.42765
Ar -2.01307 1.98765 5.3343
Ar -1.73067 -1.83284 5.38524
Ar 1.93816 -1.87716 5.40404
Ar 1.93292 1.83058 -5.42955
Ar -1.84581 1.62898 -5.5392
Ar -2.05927 -2.0659 -5.28194
Ar 1.80701 -1.92671 -5.43284
38
Atoms. Timestep: 130000
Ar 1.90811 1.8201 0.0091675
Ar 5.80898 1.83214 -0.185418
Ar 1.731 5.81066 -0.0280641
Ar -1.81084 1.83381 0.149043
Ar -5.65877 1.82526 -0.00862508
Ar -2.04072 5.79644 0.211639
Ar -1.827 -1.92622 -0.0341357
Ar -5.67108 -1.97403 -0.0951688
Ar -1.86373 -5.76455 -0.0621924
Ar 1.94382 -1.85797 0.0663011
Ar 5.69148 -1.91839 0.170837
Ar 2.04499 -5.58238 0.11129
Ar 0.102892 -0.0957366 2.66312
Ar 3.86711 0.106383 2.71206
Ar -3.85824 -0.0554281 2.57528
Ar 0.0794317 3.82162 2.56915
Ar 0.0145671 -3.77762 2.71873
Ar 3.88069 3.88307 2.37742
Ar -3.99252 3.80039 2.63264
Ar -3.87442 -3.92588 2.57448
Ar 3.7256 -3.69412 2.81915
Ar 0.0463546 0.0199668 -2.59534
Ar 3.84771 -0.0455462 -2.73392
Ar -3.69277 0.0308055 -2.62604
Ar -0.172879 3.7853 -2.47508
Ar 0.0365596 -3.80886 -2.69315
Ar 3.64059 3.74626 -2.57439
Ar -3.84898 3.77655 -2.56745
Ar -3.81112 -3.74288 -2.82366
Ar 3.83845 -3.82852 -2.63057
Ar 1.88786 2.05061 5.18901
Ar -1.91085 1.85091 5.06108
Ar -2.01521 -1.91969 5.39527
Ar 1.89554 -1.78402 5.57537
Ar 1.83434 1.73348 -5.38898
Ar -1.85956 1.90441 -5.25748
Ar -1.86099 -1.75414 -5.38026
Ar 1.94561 -1.9712 -5.42112
38
Atoms. Timestep: 140000
Ar 1.90321 1.85825 0.0183001
Ar 5.68784 1.89241 0.0878136
Ar 1.90876 5.68153 0.00232043
Ar -1.91943 1.87896 -0.0289136
Ar -5.86732 1.92142 -0.0544096
Ar -1.84321 5.61346 -0.0961703
Ar -1.76911 -1.86064 0.0997901
Ar -5.70813 -1.80244 -0.0381585
Ar -1.85612 -5.61027 0.0278396
Ar 1.99247 -1.88956 0.127198
Ar 5.71354 -1.89535 -0.00401587
Ar 1.94122 -5.60271 -0.0412391
Ar -0.0136695 0.107495 2.765
Ar 3.83997 -0.0112751 2.86282
Ar -3.87074 -0.00698479 2.67353
Ar -0.108751 3.83035 2.74552
Ar 0.101937 -3.80214 2.67822
Ar 3.79489 3.70151 2.70573
Ar -3.95927 3.80531 2.60973
Ar -3.7537 -3.78583 2.72027
Ar 3.92226 -3.82399 2.72375
Ar 0.048687 -0.0209399 -2.61392
Ar 3.86798 0.0510911 -2.63323
Ar -3.77476 -0.0781211 -2.67824
Ar -0.0648711 3.74876 -2.85901
Ar 0.0356463 -3.73814 -2.70089
Ar 3.78323 3.79562 -2.82792
Ar -3.82229 3.71827 -2.64469
Ar -3.60628 -3.81146 -2.69937
Ar 3.7426 -3.65554 -2.68704
Ar 1.6546 1.92426 5.5675
Ar -2.03172 1.89196 5.40858
Ar -1.81407 -1.88351 5.24858
Ar 1.96953 -1.8897 5.30447
Ar 1.88201 1.78061 -5.39546
Ar -1.94434 1.88818 -5.40448
Ar -1.96079 -2.00468 -5.45917
Ar 1.90022 -1.91519 -5.51063
38
Atoms. Timestep: 150000
Ar 1.85386 1.85625 0.00681751
Ar 5.63226 1.92528 0.0583215
Ar 1.7602 5.7663 -0.0233691
Ar -1.87297 1.88297 0.0616042
Ar -5.65691 1.94388 0.125525
Ar -2.02669 5.80744 -0.0387203
Ar -1.83926 -1.82626 -0.00471124
Ar -5.52482 -1.78469 -0.103465
Ar -1.72395 -5.71655 -0.137726
Ar 1.86398 -1.90446 0.08094
Ar 5.64995 -1.7984 0.109607
Ar 2.02613 -5.7581 0.0274011
Ar -0.0717058 0.0170138 2.69518
Ar 3.6412 0.108409 2.70186
Ar -3.78991 -0.0501679 2.72069
Ar 0.0401514 3.79333 2.59192
Ar -0.00497742 -3.79351 2.65159
Ar 3.77088 3.93551 2.60896
Ar -3.72789 3.81406 2.72449
Ar -3.72514 -3.81082 2.60317
Ar 3.72035 -3.88088 2.68487
Ar -0.013995 -0.0386422 -2.61194
Ar 3.73735 -0.00709695 -2.70539
Ar -3.66681 0.0051395 -2.62463
Ar -0.0188042 3.63062 -2.68095
Ar 0.0684096 -3.69038 -2.64942
Ar 3.70679 3.75361 -2.75765
Ar -3.84903 3.67837 -2.72159
Ar -3.70673 -3.80798 -2.6561
Ar 3.81081 -3.85819 -2.69379
Ar 1.8064 1.86672 5.48468
Ar -1.89982 2.05947 5.39023
Ar -1.99759 -1.9647 5.40586
Ar 1.80731 -1.94014 5.33955
Ar 1.86994 1.89007 -5.50289
Ar -1.7856 1.74558 -5.3891
Ar -1.78974 -1.98002 -5.36404
Ar 1.92836 -1.86804 -5.40777
38
Atoms. Timestep: 160000
Ar 1.77524 1.90397 -0.0291688
Ar 5.92245 1.83283 0.0110273
Ar 1.75396 5.73634 0.0420032
Ar -2.03913 1.77933 0.00174911
Ar -5.78077 1.76051 -0.0380478
Ar -1.99423 5.4237 -0.0227749
Ar -1.87233 -1.85781 0.0122617
Ar -5.67618 -2.05344 -0.0396783
Ar -1.74484 -5.59012 0.030072
Ar 1.85991 -1.81207 0.0192332
Ar 5.5273 -1.9468 -0.0888938
Ar 1.94418 -5.44245 0.0265663
Ar -0.125168 0.035077 2.70573
Ar 3.85706 -0.0481265 2.60856
Ar -3.94155 -0.0840954 2.70043
Ar -0.123981 3.83876 2.67882
Ar 0.00689334 -3.66936 2.79122
Ar 3.85062 3.80537 2.58429
Ar -3.91331 3.88892 2.59067
Ar -3.75063 -3.75522 2.70716
Ar 3.84742 -3.86811 2.91373
Ar 0.0262332 0.034081 -2.66971
Ar 3.67644 0.0833527 -2.5937
Ar -3.80436 -0.0716108 -2.68927
Ar 0.039635 3.84382 -2.70234
Ar 0.0462741 -3.75097 -2.7058
Ar 3.95987 3.86659 -2.61358
Ar -3.67778 3.69993 -2.86424
Ar -3.79075 -3.74324 -2.73499
Ar 3.77125 -3.8811 -2.84235
Ar 1.91671 1.86168 5.26689
Ar -1.90662 1.78882 5.51889
Ar -1.88638 -1.93515 5.38164
Ar 1.95498 -1.64939 5.3362
Ar 2.06739 2.01359 -5.25377
Ar -1.76123 1.77773 -5.41973
Ar -1.90531 -1.9774 -5.3888
Ar 1.89273 -1.83695 -5.23031
38
Atoms. Timestep: 170000
Ar 1.88398 1.91843 -0.0308836
Ar 5.60371 1.92787 -0.02101
Ar 1.93393 5.88985 -0.0428348
Ar -1.89922 1.83262 0.0168589
Ar -5.62174 1.94171 -0.0738441
Ar -2.08752 5.6988 0.0671931
Ar -1.94172 -1.9513 -0.054742
Ar -5.66183 -1.81837 -0.104377
Ar -1.72383 -5.78405 0.145488
Ar 1.81817 -1.8404 0.00476624
Ar 5.6994 -1.81729 0.0349345
Ar 1.94377 -5.74363 0.08427
Ar -0.0245519 0.0641983 2.68626
Ar 3.79352 0.0113797 2.62865
Ar -3.72992 -0.0547503 2.66185
Ar -0.0408067 3.75899 2.68091
Ar -0.0643456 -3.6473 2.48989
Ar 3.71101 3.85116 2.70729
Ar -3.75558 3.67769 2.78699
Ar -3.90283 -3.98243 2.56609
Ar 3.87809 -3.73835 2.63732
Ar 0.0119915 -0.0848489 -2.67109
Ar 3.66745 0.0240733 -2.5648
Ar -3.72488 -0.0193279 -2.70256
Ar -0.0226507 3.73668 -2.5541
Ar 0.0582029 -3.86898 -2.59232
Ar 3.84055 3.87353 -2.83745
Ar -3.74364 3.82628 -2.84301
Ar -3.77644 -3.83677 -2.61883
Ar 3.81518 -3.85364 -2.45031
Ar 1.8819 2.06712 5.34018
Ar -1.93846 1.82538 5.32483
Ar -1.90642 -1.93891 5.34341
Ar 1.84278 -1.8965 5.26132
Ar 1.83414 1.78652 -5.38685
Ar -1.79655 1.92604 -5.27627
Ar -1.84744 -1.78044 -5.37276
Ar 1.99458 -1.98 -5.27047
38
Atoms. Timestep: 180000
Ar 1.83954 1.87141 0.0615661
Ar 5.69166 1.84632 0.0190264
Ar 1.81212 5.70449 0.118051
Ar -1.84313 1.75549 -0.0805863
Ar -5.84379 1.81151 -0.0605295
Ar -1.97028 5.73983 -0.111362
Ar -1.95418 -1.87955 0.0667327
Ar -5.65094 -2.02613 -0.0340418
Ar -2.05173 -5.62107 0.037289
Ar 1.95287 -1.83414 0.067299
Ar 5.91566 -1.84099 0.0371115
Ar 1.77885 -5.65204 -0.0618082
Ar -0.0460085 -0.0181967 2.56572
Ar 3.77954 -0.00119093 2.66245
Ar -3.94707 0.100121 2.69445
Ar -0.0119727 3.63824 2.59652
Ar 0.10509 -3.81196 2.65333
Ar 3.79653 3.85839 2.72955
Ar -3.7925 3.8813 2.40776
Ar -3.79552 -3.67267 2.8084
Ar 3.99269 -3.70578 2.53439
Ar 0.035245 -0.0776297 -2.61789
Ar 3.78069 0.109139 -2.52801
Ar -3.7528 -0.0113253 -2.66806
Ar -0.0401745 3.79606 -2.6015
Ar 0.0234907 -3.85458 -2.60298
Ar 3.72469 3.75013 -2.5142
Ar -3.77467 3.72937 -2.68188
Ar -3.68451 -3.90697 -2.84916
Ar 3.78714 -3.71146 -2.60758
Ar 1.75469 1.8816 5.25783
Ar -2.00547 1.88679 5.30977
Ar -1.70572 -1.73579 5.36248
Ar 2.0906 -1.88501 5.31782
Ar 1.82108 1.74374 -5.23918
Ar -1.85774 1.89525 -5.40945
Ar -1.82185 -1.82433 -5.33674
Ar 1.86988 -1.92737 -5.30261
38
Atoms. Timestep: 190000
Ar 1.81288 1.91842 -0.0600124
Ar 5.55749 1.95072 -0.106413
Ar 2.09019 5.67222 0.0867871
Ar -1.82115 1.90939 0.0480608
Ar -5.50656 1.8413 -0.0111473
Ar -1.64265 5.73042 -0.0757329
Ar -1.90368 -1.94598 0.00979462
Ar -5.60804 -1.88315 -0.11732
Ar -1.94812 -5.73685 0.0541758
Ar 1.93763 -1.84421 -0.0113142
Ar 5.72838 -1.78033 -0.0122676
Ar 1.89486 -5.57967 0.00888726
Ar 0.0193773 -0.0713408 2.64235
Ar 3.70977 0.0826443 2.68138
Ar -3.71001 -0.0399293 2.71994
Ar -0.0611899 3.8297 2.71521
Ar -0.00553743 -3.81506 2.62336
Ar 3.77789 3.80555 2.83217
Ar -3.83723 3.87592 2.56375
Ar -3.84304 -3.8088 2.64365
Ar 3.88612 -3.57715 2.74402
Ar -0.0899688 -0.0094685 -2.63712
Ar 3.76789 0.0812189 -2.64609
Ar -3.82564 -0.0417623 -2.77246
Ar -0.0959269 3.70275 -2.66329
Ar 0.0691131 -3.829 -2.68715
Ar 3.59975 3.74357 -2.80536
Ar -3.70866 3.76109 -2.54415
Ar -3.61299 -3.89323 -2.73098
Ar 3.91819 -3.7399 -2.58196
Ar 1.73086 1.79676 5.33811
Ar -2.10501 1.96534 5.31509
Ar -1.96154 -1.9678 5.42891
Ar 1.88717 -1.90707 5.55191
Ar 1.81238 1.7588 -5.35999
Ar -2.05018 1.90643 -5.47367
Ar -1.80179 -1.87358 -5.34052
Ar 1.94098 -1.98697 -5.37062
38
Atoms. Timestep: 200000
Ar 1.93908 1.86636 0.0109976
Ar 5.68627 1.88014 -0.156183
Ar 1.83766 5.55688 0.0190019
Ar -1.75315 1.90263 -0.115783
Ar -5.5559 1.89138 -0.0751131
Ar -2.01499 5.58959 0.0967516
Ar -1.83582 -1.97031 -0.038929
Ar -5.65588 -1.93458 -0.0390811
Ar -2.03617 -5.60704 0.107009
Ar 1.86164 -1.85209 -0.00940861
Ar 5.71811 -1.88722 0.0932938
Ar 1.79374 -5.63529 0.0841982
Ar 0.0278677 -0.0143293 2.61867
Ar 3.83139 0.172827 2.71568
Ar -3.7373 0.0213125 2.58604
Ar -0.123785 3.76529 2.80653
Ar 0.0443099 -3.79565 2.82714
Ar 3.67105 3.9082 2.8309
Ar -3.77349 3.76559 2.75666
Ar -3.77097 -3.78947 2.75139
Ar 3.75061 -3.69126 2.66703
Ar 0.107078 -0.0414925 -2.67757
Ar 3.82997 0.0187538 -2.74264
Ar -3.77131 -0.0268341 -2.70932
Ar -0.0942285 3.73736 -2.75559
Ar 0.0540638 -3.81418 -2.71875
Ar 3.75126 3.76027 -2.75827
Ar -3.74537 3.73925 -2.71458
Ar -3.64848 -3.80273 -2.83113
Ar 3.8215 -3.82121 -2.55744
Ar 1.65454 1.76134 5.48217
Ar -2.05041 1.99515 5.47825
Ar -1.92306 -1.81031 5.33207
Ar 2.07141 -1.87906 5.43793
Ar 1.84089 1.89041 -5.6227
Ar -1.93636 1.86417 -5.40556
Ar -1.805 -1.85169 -5.52036
Ar 1.94122 -1.86116 -5.25332
38
Atoms. Timestep: 210000
Ar 1.9167 1.87101 0.00944151
Ar 5.79163 1.95568 0.0693616
Ar 1.94689 5.58532 0.0509327
Ar -1.77238 1.84467 -0.0453524
Ar -5.59475 1.8769 0.0760164
Ar -2.0509 5.6162 -0.143116
Ar -1.86869 -2.05191 0.125474
Ar -5.65142 -2.0054 0.116007
Ar -1.82314 -5.70466 -0.114223
Ar 1.91692 -1.83814 0.0238167
Ar 5.61522 -1.84313 0.00848653
Ar 1.95827 -5.69094 -0.00247785
Ar -0.0210987 0.0338858 2.70442
Ar 3.73048 0.0485681 2.64211
Ar -3.81303 0.00636811 2.59527
Ar -0.0294525 3.83062 2.64253
Ar 0.0257706 -3.72814 2.6726
Ar 3.75432 3.85775 2.67565
Ar -3.78232 3.86131 2.63994
Ar -3.75404 -4.07114 2.68799
Ar 3.84298 -3.75814 2.63892
Ar 0.0129067 0.0916254 -2.64396
Ar 3.73758 0.0373704 -2.66587
Ar -3.66125 -0.0664279 -2.44003
Ar 0.0169155 3.8869 -2.79276
Ar 0.052117 -3.60286 -2.58827
Ar 3.77098 3.74739 -2.66145
Ar -3.83585 3.75837 -2.81486
Ar -3.79309 -3.71632 -2.73703
Ar 3.75058 -3.67519 -2.58917
Ar 1.80679 1.97096 5.28349
Ar -1.98323 1.9114 5.37977
Ar -2.12032 -1.95543 5.27827
Ar 1.75628 -1.83288 5.44366
Ar 1.91467 1.79938 -5.44686
Ar -1.95171 1.83692 -5.4374
Ar -1.76419 -1.96608 -5.25593
Ar 1.95488 -1.92082 -5.38538
38
Atoms. Timestep: 220000
Ar 1.85981 1.92299 0.0494454
Ar 5.68448 1.88483 -0.0229506
Ar 1.73395 5.7273 0.146784
Ar -1.78896 1.79367 0.0127893
Ar -5.72221 1.93078 -0.0557148
Ar -1.9698 5.64775 -0.0308275
Ar -1.86508 -1.87541 -0.00204077
Ar -5.73684 -1.91773 -0.0218149
Ar -2.03116 -5.72946 -0.0586958
Ar 1.90774 -1.80817 0.0408336
Ar 5.82063 -1.79911 0.138402
Ar 1.99424 -5.62565 0.0522075
Ar 0.0274204 -0.0557901 2.76998
Ar 3.89446 0.0369642 2.71794
Ar -3.70596 0.0294654 2.6262
Ar -0.0804265 3.74944 2.63856
Ar -0.11825 -3.74607 2.61612
Ar 3.85287 3.81624 2.4791
Ar -3.88453 3.70968 2.63712
Ar -3.93657 -3.77117 2.65702
Ar 3.80489 -3.77066 2.72686
Ar 0.0285245 -0.0742846 -2.6935
Ar 3.76847 0.0590579 -2.60878
Ar -3.74651 -0.0546384 -2.77902
Ar -0.0165812 3.73856 -2.67463
Ar 0.106905 -3.7724 -2.58758
Ar 3.68157 3.69462 -2.66447
Ar -3.80424 3.77755 -2.82645
Ar -3.69224 -3.77149 -2.5903
Ar 3.94887 -3.68234 -2.57995
Ar 1.90179 1.99667 5.27923
Ar -1.90389 1.85216 5.31355
Ar -1.93297 -1.97885 5.40441
Ar 1.88081 -1.86528 5.32002
Ar 1.87727 1.86135 -5.32382
Ar -1.9961 1.91749 -5.41666
Ar -1.83777 -1.97156 -5.3964
Ar 1.99738 -1.87549 -5.29297
38
Atoms. Timestep: 230000
Ar 1.90156 1.84838 -0.0136724
Ar 5.63905 2.01503 -0.00858789
Ar 1.88042 5.65316 0.189628
Ar -1.85251 1.97421 0.0493274
Ar -5.71006 1.78775 -0.0413781
Ar -1.96089 5.74651 -0.156553
Ar -1.9237 -1.91728 -0.0243725
Ar -5.73864 -2.1867 -0.121722
Ar -1.87881 -5.76101 0.136211
Ar 1.88219 -1.88074 0.00415324
Ar 5.69593 -1.79524 -0.00903881
Ar 1.92555 -5.8143 0.0199361
Ar -0.0509826 0.0625235 2.63655
Ar 3.80159 0.0222056 2.76821
Ar -3.80804 -0.00560961 2.53967
Ar -0.112874 3.919 2.69661
Ar 0.0945569 -3.6216 2.63852
Ar 3.75749 3.82205 2.68196
Ar -3.88238 4.05504 2.61876
Ar -3.73778 -3.70741 2.75087
Ar 3.8348 -3.7846 2.58023
Ar 0.0333608 -0.111659 -2.6782
Ar 3.84926 0.0246905 -2.68067
Ar -3.76701 -0.247785 -2.64545
Ar 0.0130402 3.79027 -2.60816
Ar 0.0170954 -3.8011 -2.75167
Ar 3.72145 3.81925 -2.58561
Ar -3.862 3.64278 -2.73599
Ar -3.68897 -3.95202 -2.78803
Ar 3.65605 -3.75641 -2.61362
Ar 1.78399 1.96827 5.42113
Ar -2.02742 1.9858 5.27984
Ar -1.76514 -1.70739 5.407
Ar 2.03692 -2.0473 5.55299
Ar 2.08202 1.83769 -5.31224
Ar -1.87151 1.89402 -5.33518
Ar -1.8599 -1.8437 -5.48066
Ar 1.89428 -1.92578 -5.3808
38
Atoms. Timestep: 240000
Ar 1.78966 1.8827 0.026865
Ar 5.50466 1.93463 0.0408277
Ar 1.95889 5.73344 -0.157966
Ar -1.89861 1.93199 0.0281744
Ar -5.65415 1.87712 0.0115654
Ar -1.83237 5.67078 0.00181997
Ar -1.81286 -1.89327 0.0735667
Ar -5.54376 -1.99556 -0.0500999
Ar -1.87562 -5.6748 -0.0101691
Ar 1.87525 -1.89538 0.0119704
Ar 5.68567 -1.71767 0.196182
Ar 1.86284 -5.6751 -0.0487165
Ar -0.0252803 0.0348934 2.71186
Ar 3.61137 0.0493973 2.64994
Ar -3.82532 -0.083777 2.69667
Ar 0.0312171 3.84667 2.68008
Ar 0.0728632 -3.74798 2.67237
Ar 3.69791 3.80531 2.64373
Ar -3.79655 3.7384 2.58383
Ar -3.74865 -3.97877 2.70141
Ar 3.78911 -3.75559 2.6621
Ar -0.0264781 0.0215395 -2.62991
Ar 3.8247 -0.080954 -2.63542
Ar -3.82561 -0.0373501 -2.74074
Ar -0.100181 3.84124 -2.73243
Ar 0.0361916 -3.77981 -2.65119
Ar 3.80662 3.66413 -2.72603
Ar -3.9119 3.82772 -2.6303
Ar -3.61757 -3.81935 -2.72404
Ar 3.99212 -3.73604 -2.54762
Ar 1.75767 1.95974 5.3181
Ar -1.94867 1.95868 5.24877
Ar -1.88026 -1.93103 5.24491
Ar 1.94627 -1.77639 5.40665
Ar 1.8857 1.73793 -5.25386
Ar -1.92203 1.91858 -5.4149
Ar -1.79803 -1.84503 -5.32633
Ar 1.91719 -2.01002 -5.33167
38
Atoms. Timestep: 250000
Ar 1.79325 1.90564 -0.0197349
Ar 5.62832 1.88082 0.094563
Ar 1.82606 5.62032 -0.0342037
Ar -1.91244 1.83778 -0.0459661
Ar -5.7091 1.8232 -0.0656679
Ar -1.97375 5.67998 -0.0634296
Ar -1.87962 -1.87892 0.00618484
Ar -5.63524 -1.95473 -0.0345125
Ar -1.90832 -5.60607 -0.0313478
Ar 1.91596 -1.81094 0.0287664
Ar 5.79649 -1.88731 -0.0385211
Ar 1.96081 -5.51817 0.0834478
Ar -0.0164697 0.0112123 2.61704
Ar 3.77084 0.0386321 2.69383
Ar -3.8334 -0.00484475 2.60245
Ar -0.0984305 3.77137 2.7068
Ar -0.0392959 -3.75023 2.67367
Ar 3.72377 3.77586 2.70959
Ar -3.80508 3.82085 2.53354
Ar -3.7721 -3.75051 2.764
Ar 3.91525 -3.71898 2.69658
Ar -0.00905952 -0.00326786 -2.70535
Ar 3.81311 0.0672481 -2.69789
Ar -3.78207 -0.0443195 -2.74146
Ar -0.0119115 3.6682 -2.75814
Ar 0.00692473 -3.73838 -2.61385
Ar 3.71643 3.80268 -2.61413
Ar -3.76282 3.74139 -2.68877
Ar -3.78781 -3.8521 -2.67493
Ar 3.74351 -3.78972 -2.58607
Ar 1.78108 1.9338 5.46708
Ar -2.01183 1.83147 5.3056
Ar -1.75702 -1.90567 5.42704
Ar 2.0639 -1.87116 5.40097
Ar 2.01894 1.88099 -5.43961
Ar -1.90599 1.8437 -5.43077
Ar -1.86253 -1.9203 -5.27107
Ar 2.00166 -1.92854 -5.25575
38
Atoms. Timestep: 260000
Ar 1.86642 1.95075 0.0208119
Ar 5.65546 1.94882 -0.0201855
Ar 1.85973 5.65291 -0.0617443
Ar -1.87131 1.96557 0.00858481
Ar -5.6529 1.78369 -0.0500006
Ar -1.87249 5.71296 -0.0679491
Ar -1.86117 -1.88633 0.0423522
Ar -5.74077 -1.93706 -0.0053481
Ar -1.80552 -5.69286 0.00163931
Ar 1.85861 -1.8512 0.0613055
Ar 5.68634 -1.78092 -0.0250209
Ar 1.95909 -5.58939 0.073939
Ar -0.059233 0.0418949 2.71997
Ar 3.71096 0.0384781 2.66055
Ar -3.75318 0.0257743 2.59402
Ar -0.0910775 3.7998 2.68799