38
Atoms. Timestep: 0
Ar 1.668 1.873 0
Ar 5.651 1.903 0.003
Ar 1.878 5.656 -0.01
Ar -1.867 1.863 -0.007
Ar -5.65 1.873 -0.014
Ar -1.898 5.645 -0.014
Ar -1.857 -1.873 0
Ar -5.64 -1.903 -0.003
Ar -1.867 -5.656 0.01
Ar 1.878 -1.863 0.007
Ar 5.661 -1.873 0.014
Ar 1.909 -5.645 0.014
Ar 0.002 0.007 2.642
Ar 3.751 0.017 2.659
Ar -3.75 -0.003 2.646
Ar -0.008 3.756 2.646
Ar 0.012 -3.745 2.659
Ar 3.761 3.786 2.656
Ar -3.778 3.766 2.646
Ar -3.757 -3.773 2.663
Ar 3.781 -3.752 2.673
Ar 0.009 -0.007 -2.642
Ar 3.761 0.003 -2.646
Ar -3.74 -0.017 -2.659
Ar -0.002 3.746 -2.659
Ar 0.019 -3.756 -2.646
Ar 3.768 3.773 -2.663
Ar -3.771 3.752 -2.673
Ar -3.75 -3.786 -2.656
Ar 3.788 -3.766 -2.646
Ar 1.871 1.897 5.329
Ar -1.888 1.886 5.325
Ar -1.878 -1.873 5.332
Ar 1.881 -1.863 5.339
Ar 1.888 1.873 -5.332
Ar -1.871 1.863 -5.339
Ar -1.861 -1.897 -5.329
Ar 1.898 -1.886 -5.325
38
Atoms. Timestep: 10000
Ar 1.92866 1.86254 -0.210629
Ar 5.66225 2.55865 -0.325919
Ar 2.30238 5.59709 -0.238806
Ar -1.842 1.8416 -0.298134
Ar -5.63008 1.83613 0.0544207
Ar -1.73956 5.64964 0.163811
Ar -1.92156 -1.86373 -0.0989749
Ar -5.98346 -1.99553 -0.0099392
Ar -2.10741 -5.63351 -0.203515
Ar 1.77844 -1.9119 -0.0307887
Ar 5.4816 -1.23027 0.132425
Ar 1.95451 -5.73093 0.00749334
Ar -0.0113302 -0.148123 2.69915
Ar 3.71927 0.261029 2.99901
Ar -3.86106 -0.157168 2.71965
Ar 0.322764 3.80252 2.74904
Ar -0.140974 -4.02975 2.65198
Ar 3.94579 4.07841 3.03198
Ar -3.46709 3.53155 3.12513
Ar -3.99867 -3.79325 2.43963
Ar 3.48416 -3.57409 2.85796
Ar 0.228024 -0.0270656 -2.60863
Ar 3.94046 0.108806 -2.88888
Ar -3.92751 -0.15844 -2.65561
Ar 0.108991 3.97911 -2.85993
Ar -0.0885057 -3.87979 -2.6037
Ar 3.95628 3.86539 -3.51014
Ar -3.95664 3.84003 -2.76861
Ar -4.04875 -3.77587 -2.67763
Ar 4.47509 -4.08492 -2.36179
Ar 1.83884 2.25314 5.63443
Ar -1.65741 1.34321 5.67596
Ar -2.16039 -2.15336 5.16605
Ar 1.68379 -1.86355 5.46896
Ar 1.77356 1.73556 -5.51961
Ar -1.93328 1.78909 -5.24489
Ar -1.90935 -1.8429 -5.23106
Ar 1.80217 -2.07836 -5.2299
38
Atoms. Timestep: 20000
Ar 1.728 1.98178 0.0101332
Ar 5.85067 2.00975 0.00408705
Ar 1.6635 5.81339 0.00827471
Ar -2.09491 1.87403 0.104003
Ar -5.66563 1.86058 0.0903466
Ar -2.04749 5.82946 -0.469892
Ar -1.87801 -1.96619 0.0271961
Ar -5.48706 -2.03506 0.0318007
Ar -1.86734 -5.63785 -0.0799491
Ar 1.7445 -1.72041 -0.0221546
Ar 5.5809 -2.34464 0.270781
Ar 1.79454 -5.69015 0.232734
Ar -0.046936 -0.105615 2.80958
Ar 3.75489 0.0108613 2.82152
Ar -3.73225 0.0303243 2.79611
Ar -0.0206223 3.8052 2.57433
Ar 0.00897756 -3.70366 2.77176
Ar 3.82347 3.81661 2.48424
Ar -3.95058 3.9231 2.64353
Ar -3.76212 -3.84601 3.06779
Ar 3.52743 -3.82215 2.78459
Ar -0.150788 0.0820056 -2.52892
Ar 3.75944 -0.114035 -2.49169
Ar -3.74904 -0.247134 -2.75714
Ar -0.0357539 3.60103 -2.79982
Ar -0.00491759 -3.80413 -2.90672
Ar 3.78531 3.92723 -2.34927
Ar -3.88835 3.48149 -2.93677
Ar -3.81935 -4.01298 -2.97854
Ar 3.57208 -3.81279 -3.0072
Ar 2.40889 2.38136 5.48154
Ar -1.82515 1.90761 5.51949
Ar -1.71087 -1.9439 5.73238
Ar 2.13192 -2.06225 5.5492
Ar 2.07133 2.13302 -5.53936
Ar -1.68656 1.98225 -5.60705
Ar -1.83869 -1.79206 -5.68854
Ar 2.05858 -1.78906 -5.65239
38
Atoms. Timestep: 30000
Ar 2.09686 1.83406 0.125222
Ar 6.06073 1.81906 0.00685988
Ar 1.68536 5.98249 0.0884774
Ar -1.94537 2.01756 0.00379761
Ar -5.55895 2.04569 -0.418346
Ar -2.38177 5.6967 -0.182549
Ar -1.98985 -1.93502 0.239009
Ar -5.73627 -1.59268 0.479464
Ar -1.88495 -6.05148 0.119996
Ar 1.87599 -1.72848 -0.0219979
Ar 5.61471 -1.99617 0.0163516
Ar 1.75955 -6.12904 -0.0511863
Ar 0.102083 -0.0987939 2.72781
Ar 3.87673 0.0461988 2.6382
Ar -3.45855 0.263172 2.71981
Ar -0.0192155 3.82816 2.60934
Ar -0.108767 -3.91734 2.85802
Ar 4.052 4.18181 2.40889
Ar -3.47517 3.82539 3.15802
Ar -4.21061 -4.43005 2.57669
Ar 3.63637 -3.85724 2.53623
Ar -0.106818 -0.205877 -2.60811
Ar 3.69291 0.300424 -2.53874
Ar -3.92662 -0.136448 -2.64208
Ar 0.0278771 3.7883 -2.57232
Ar -0.164422 -3.72149 -2.47478
Ar 3.71072 4.33617 -2.32656
Ar -4.47152 3.63989 -3.84168
Ar -3.81659 -3.88422 -2.57148
Ar 3.48421 -3.67521 -2.7462
Ar 2.37543 2.58358 5.58278
Ar -1.2591 1.74734 5.347
Ar -2.12895 -2.12588 5.28881
Ar 1.78625 -1.80361 5.34283
Ar 1.96906 2.09227 -5.26661
Ar -1.70937 1.27804 -5.61717
Ar -1.53045 -2.4228 -5.58894
Ar 2.07847 -1.59344 -5.40485
38
Atoms. Timestep: 40000
Ar 1.77315 1.72146 -0.171795
Ar 5.56944 1.6223 -0.0331025
Ar 1.70607 5.98706 0.0735118
Ar -1.80057 1.68733 -0.154754
Ar -5.82192 1.99892 0.202741
Ar -2.11901 5.58464 0.261192
Ar -1.73111 -1.91599 0.054862
Ar -5.92856 -1.6162 -0.328723
Ar -1.4346 -5.57144 0.29936
Ar 2.03664 -1.97819 -0.139061
Ar 6.008 -2.19227 0.207099
Ar 2.47237 -5.71341 -0.155068
Ar 0.0401838 0.0668572 2.76701
Ar 3.68556 -0.0667736 2.64374
Ar -3.74786 0.208375 2.76364
Ar -0.0130491 3.69315 2.53754
Ar 0.148458 -3.60484 2.77634
Ar 3.83578 3.7723 2.53111
Ar -3.78303 3.7121 2.86516
Ar -3.85189 -3.44658 2.74146
Ar 3.70752 -3.80251 2.80343
Ar 0.0216947 -0.142304 -2.72146
Ar 4.00113 -0.0771577 -2.62598
Ar -3.99651 0.178552 -2.83722
Ar -0.213224 3.9553 -2.70521
Ar 0.264427 -3.92637 -2.92956
Ar 3.86845 3.92476 -2.51681
Ar -3.96351 4.01421 -2.61735
Ar -3.8695 -4.22589 -2.57585
Ar 3.83692 -3.66173 -3.19713
Ar 2.06873 1.95888 5.2399
Ar -1.96187 2.118 5.42846
Ar -2.01006 -1.85859 5.81877
Ar 1.62412 -1.8185 5.82745
Ar 2.00298 1.85199 -5.07278
Ar -1.67836 1.69009 -5.6357
Ar -2.21617 -2.36168 -5.63866
Ar 1.47119 -1.76484 -5.78654
38
Atoms. Timestep: 50000
Ar 1.82448 1.80859 0.0218794
Ar 5.6206 2.01349 0.0359587
Ar 1.85221 5.64992 0.00426491
Ar -1.96368 1.80701 -0.0338643
Ar -5.804 1.92227 0.015928
Ar -2.0691 5.76688 -0.179178
Ar -1.83884 -1.83554 0.107613
Ar -5.52314 -2.03012 0.0593528
Ar -1.78541 -5.57199 0.0334669
Ar 2.02742 -2.00832 -0.053898
Ar 5.89552 -1.92665 -0.173755
Ar 1.92923 -5.70143 0.157033
Ar -0.113592 -0.0709411 2.66309
Ar 3.71821 -0.016868 2.57205
Ar -3.7652 0.0513531 2.76813
Ar -0.0656271 3.77905 2.62953
Ar 0.123406 -3.79546 2.71786
Ar 3.84028 3.81243 2.72358
Ar -3.70787 3.78824 2.5692
Ar -3.7389 -3.72374 2.75085
Ar 3.92827 -3.77034 2.81462
Ar 0.0221232 -0.0165658 -2.68555
Ar 3.79799 -0.0515576 -2.72125
Ar -3.77466 -0.061966 -2.64524
Ar -0.0734972 3.71321 -2.60339
Ar -0.0174525 -3.73079 -2.76903
Ar 3.76864 3.62256 -2.70174
Ar -3.99162 3.69948 -2.699
Ar -3.77536 -3.86661 -2.7044
Ar 3.69537 -3.79615 -2.72028
Ar 1.89505 1.71925 5.29712
Ar -1.89992 2.10475 5.44441
Ar -1.88273 -1.67998 5.48245
Ar 1.99858 -1.90123 5.40056
Ar 1.81113 1.97106 -5.43126
Ar -1.86919 1.89962 -5.23094
Ar -1.97414 -1.89636 -5.40833
Ar 1.88745 -1.67556 -5.50783
38
Atoms. Timestep: 60000
Ar 1.8579 1.78603 0.00785552
Ar 5.56412 2.09843 -0.0166577
Ar 1.88021 5.48651 -0.111754
Ar -1.9255 1.8919 -0.0357823
Ar -5.64097 2.00146 0.0227834
Ar -2.01073 5.73233 0.0500713
Ar -1.78126 -1.86671 0.0983305
Ar -5.50166 -1.76825 0.0086409
Ar -1.93629 -5.71856 0.134092
Ar 1.94873 -1.89001 0.0398673
Ar 5.66665 -1.75797 -0.00270214
Ar 1.95254 -5.8266 0.0292355
Ar 0.133895 -0.183282 2.69494
Ar 3.88159 0.0575529 2.77094
Ar -3.76903 -0.0757551 2.72826
Ar -0.0594757 3.76539 2.67178
Ar 0.0763302 -3.90995 2.64162
Ar 3.7778 3.92552 2.7065
Ar -3.82082 3.67845 2.71743
Ar -3.73824 -3.75649 2.68359
Ar 3.74324 -3.78511 2.73373
Ar -0.0404432 -0.0159758 -2.60004
Ar 3.66982 0.00636663 -2.72552
Ar -3.81634 0.111663 -2.74428
Ar -0.044026 3.80331 -2.65248
Ar 0.034927 -3.77396 -2.52274
Ar 3.76167 3.66464 -2.90243
Ar -3.75695 3.92088 -2.73821
Ar -3.74471 -3.65819 -2.58939
Ar 3.83475 -3.56151 -2.72314
Ar 1.9079 2.09806 5.36869
Ar -1.83013 1.8281 5.22807
Ar -1.82594 -2.03027 5.42046
Ar 1.91186 -1.9545 5.33447
Ar 1.72914 1.8419 -5.50923
Ar -2.07101 1.76138 -5.42377
Ar -1.82764 -2.02271 -5.46782
Ar 1.81008 -1.90306 -5.32541
38
Atoms. Timestep: 70000
Ar 1.82342 1.86368 -0.0267701
Ar 5.76623 2.09444 0.0164403
Ar 1.79059 5.56953 -0.0131738
Ar -1.95128 1.90422 -0.0575716
Ar -5.79862 1.73392 0.236059
Ar -1.92738 5.55559 -0.123507
Ar -1.86361 -1.99213 0.0552655
Ar -5.62501 -2.06819 0.144825
Ar -1.90474 -5.65568 -0.099641
Ar 1.87049 -1.89986 0.0198447
Ar 5.69666 -1.90527 -0.0715085
Ar 1.91626 -5.64669 -0.00938152
Ar 0.0422088 0.0729464 2.63839
Ar 3.85621 -0.0187281 2.59624
Ar -3.75089 -0.0583421 2.69832
Ar -0.085065 3.93037 2.61774
Ar 0.0684672 -3.75502 2.70325
Ar 3.77918 3.81172 2.614
Ar -3.89177 3.76773 2.64
Ar -3.62578 -3.8082 2.89468
Ar 3.82069 -3.65163 2.71768
Ar -0.0566028 0.00696757 -2.63234
Ar 3.71417 -0.0419553 -2.56963
Ar -3.80445 -0.0256858 -2.58709
Ar 0.113214 3.60892 -2.6812
Ar -0.071065 -3.67835 -2.75109
Ar 3.84381 3.76246 -2.59761
Ar -3.86525 3.62644 -2.65434
Ar -3.77216 -3.68392 -2.58695
Ar 3.72492 -3.81328 -2.73968
Ar 1.96816 1.98087 5.20712
Ar -1.90703 1.85512 5.29261
Ar -1.76291 -1.84038 5.31619
Ar 1.91715 -1.7344 5.36806
Ar 1.93146 1.86458 -5.33235
Ar -1.78121 1.96243 -5.34012
Ar -1.95731 -1.75896 -5.41126
Ar 1.76082 -1.93426 -5.49149
38
Atoms. Timestep: 80000
Ar 1.89677 1.9188 0.0368899
Ar 5.60451 1.93642 -0.111488
Ar 1.8749 5.79106 -0.132731
Ar -1.92001 1.87027 0.0773419
Ar -5.68801 1.87366 0.0421962
Ar -1.99475 5.61695 0.0480924
Ar -1.91857 -1.85054 0.0101943
Ar -5.76624 -1.88484 0.0770584
Ar -2.03684 -5.76183 0.135962
Ar 1.94125 -1.92267 0.099471
Ar 5.62792 -1.72467 -0.0947926
Ar 1.80273 -5.89344 -0.0353042
Ar 0.0550298 -0.0667121 2.52981
Ar 3.85082 0.125194 2.59097
Ar -3.7398 0.0203425 2.8049
Ar -0.0130647 3.83714 2.58354
Ar 0.0178582 -3.84574 2.54361
Ar 3.68716 3.89279 2.76702
Ar -3.84276 3.81349 2.75928
Ar -3.67809 -3.79278 2.76276
Ar 3.80716 -3.78737 2.58607
Ar 0.0390022 -0.0362793 -2.61312
Ar 3.80177 0.0894246 -2.77641
Ar -3.69514 -0.0153808 -2.67007
Ar -0.0843984 3.66666 -2.69215
Ar 0.0510023 -3.71018 -2.57679
Ar 3.75505 3.74272 -2.90581
Ar -3.85017 3.85461 -2.60655
Ar -3.6761 -3.76308 -2.51572
Ar 3.79946 -3.71284 -2.54155
Ar 1.83218 1.86998 5.30016
Ar -1.82325 1.94069 5.28332
Ar -1.76364 -1.86474 5.43159
Ar 1.93098 -1.99745 5.16998
Ar 1.80594 1.90667 -5.36811
Ar -1.90496 1.76244 -5.37759
Ar -1.7627 -2.06955 -5.37614
Ar 1.97902 -1.82825 -5.24587
38
Atoms. Timestep: 90000
Ar 1.79515 1.90469 -0.0345215
Ar 5.71841 1.95449 -0.135515
Ar 1.94238 5.4832 0.0125004
Ar -1.9316 1.76414 -0.0200883
Ar -5.73817 1.89915 0.0300124
Ar -1.88293 5.69901 -0.0131806
Ar -1.80434 -1.96432 -0.0296921
Ar -5.65074 -2.22801 -0.0368592
Ar -2.06222 -5.72162 -0.0157004
Ar 1.87148 -1.8298 -0.0516465
Ar 5.7231 -1.7314 -0.0300017
Ar 1.72269 -5.49754 0.0911322
Ar 0.102882 0.0284539 2.64015
Ar 3.85112 0.0640721 2.7284
Ar -3.60092 -0.132667 2.66817
Ar 0.0277083 3.77825 2.64486
Ar -0.000509154 -3.7398 2.85646
Ar 3.78833 3.63757 2.69015
Ar -3.86392 3.72802 2.57178
Ar -3.66822 -3.69555 2.72419
Ar 4.00741 -3.66197 2.70986
Ar -0.140804 -0.021574 -2.73429
Ar 3.74484 0.0992234 -2.7329
Ar -3.81307 -0.155674 -2.66011
Ar 0.0340753 3.63595 -2.66682
Ar -0.0226683 -3.79339 -2.79762
Ar 3.76388 3.79445 -2.85609
Ar -3.83853 3.76649 -2.50324
Ar -3.80205 -3.95643 -2.90908
Ar 3.78981 -3.85852 -2.59223
Ar 2.00437 1.95099 5.45336
Ar -1.86726 2.01056 5.43266
Ar -1.86533 -1.69612 5.5094
Ar 1.88976 -1.66396 5.47301
Ar 1.74189 1.92898 -5.46181
Ar -2.05483 2.06533 -5.22663
Ar -1.89003 -1.91483 -5.35412
Ar 1.98087 -1.92881 -5.37395
38
Atoms. Timestep: 100000
Ar 1.77904 1.91222 -0.115327
Ar 5.617 1.86085 0.0523144
Ar 2.02421 5.67033 -0.219842
Ar -1.85126 2.02013 -0.00921267
Ar -5.57799 1.89791 0.151956
Ar -1.91206 5.81191 -0.0868322
Ar -1.76945 -1.81503 -0.058857
Ar -5.89025 -1.9355 0.352499
Ar -1.8204 -5.94313 0.0184946
Ar 1.84897 -1.82528 0.00633575
Ar 5.7022 -1.84878 0.0841143
Ar 1.95712 -5.85574 0.0825874
Ar 0.0161901 0.0189711 2.65597
Ar 3.63978 0.0181204 2.69653
Ar -3.83446 -0.0825361 2.62039
Ar 0.119497 3.79807 2.58895
Ar 0.120325 -3.8357 2.53543
Ar 3.73303 3.92285 2.56883
Ar -3.65695 3.9428 2.70576
Ar -3.65885 -4.01078 2.46704
Ar 3.83521 -3.67271 2.61304
Ar -0.031056 0.00215347 -2.71658
Ar 3.84494 0.0642873 -2.7229
Ar -3.82311 -0.102699 -2.5608
Ar 0.0887553 3.71343 -2.72906
Ar -0.0400579 -3.85984 -2.65991
Ar 3.87484 3.866 -2.72461
Ar -3.93629 3.74265 -2.6943
Ar -4.02896 -3.78161 -2.43836
Ar 3.82194 -3.6776 -2.59457
Ar 1.86454 2.0458 5.52897
Ar -1.81678 1.83673 5.29494
Ar -1.79587 -2.00144 5.35678
Ar 1.9 -1.76761 5.33637
Ar 1.7754 1.99388 -5.46098
Ar -1.9323 1.75695 -5.29368
Ar -2.06418 -2.06853 -5.30877
Ar 1.8793 -1.8105 -5.32272
38
Atoms. Timestep: 110000
Ar 1.79699 1.79732 -0.061317
Ar 6.03837 1.82218 -0.0784884
Ar 1.60957 5.94404 -0.13508
Ar -1.91449 1.81743 -0.0124062
Ar -5.60066 1.72235 0.159833
Ar -2.03121 5.81704 0.0578071
Ar -1.87431 -1.91101 0.087826
Ar -5.79579 -1.98336 -0.105175
Ar -1.8693 -5.64537 0.0567803
Ar 1.90663 -1.97019 0.10333
Ar 5.87244 -2.03002 -0.00892268
Ar 1.8134 -5.94613 0.256655
Ar -0.0406925 0.033023 2.6815
Ar 3.94441 0.0883496 2.50492
Ar -3.55531 0.0526636 2.66711
Ar -0.0288145 3.86428 2.62033
Ar 0.130732 -3.69294 2.65004
Ar 3.79754 3.86487 2.29422
Ar -3.82626 3.95681 2.65453
Ar -3.92608 -3.98407 2.70387
Ar 3.91993 -3.88509 2.6503
Ar -0.0331533 0.0186439 -2.64674
Ar 3.65528 0.0289793 -2.5018
Ar -3.76891 -0.0819397 -2.55886
Ar -0.111118 3.75417 -2.58683
Ar -0.0795615 -3.65912 -2.74653
Ar 3.71204 3.96225 -2.40692
Ar -3.72408 3.73426 -2.60035
Ar -3.80272 -3.7786 -2.71937
Ar 3.65327 -3.88993 -2.69957
Ar 2.1955 2.03271 5.09963
Ar -1.84483 1.95799 5.27429
Ar -1.93422 -1.96141 5.25279
Ar 1.9571 -1.73799 5.25571
Ar 1.82325 2.00358 -5.22573
Ar -1.80598 1.71622 -5.23627
Ar -2.07588 -2.03431 -5.39246
Ar 1.81892 -1.79669 -5.30866
38
Atoms. Timestep: 120000
Ar 1.85039 1.74307 -0.0125332
Ar 5.79844 1.7969 -0.161903
Ar 2.09168 5.63022 0.0114866
Ar -1.83165 1.89866 -0.05363
Ar -5.76899 1.72076 0.043237
Ar -2.02587 5.94156 0.133889
Ar -1.91259 -1.84178 -0.00067204
Ar -5.67364 -2.32609 0.0610271
Ar -1.86728 -5.5072 0.164575
Ar 1.85769 -1.80784 -0.177895
Ar 5.88153 -2.1052 -0.0681994
Ar 1.91574 -5.5336 0.126754
Ar 0.0287632 0.0332274 2.66234
Ar 3.79951 -0.027291 2.56315
Ar -3.63909 0.0745211 2.60466
Ar -0.0529361 3.8875 2.59484
Ar -0.00306684 -3.54315 2.66279
Ar 3.78745 3.75548 2.47639
Ar -4.06077 3.7086 2.56856
Ar -3.77114 -3.77386 2.84212
Ar 3.92259 -3.6816 2.6939
Ar -0.111654 -0.0267234 -2.65659
Ar 3.81324 -0.0857831 -2.66143
Ar -3.92851 -0.352517 -2.63188
Ar -0.147008 3.9329 -2.55275
Ar -0.0568718 -3.8771 -2.62821
Ar 3.79199 3.72948 -2.76157
Ar -4.07977 3.8617 -2.28483
Ar -3.64851 -3.97756 -2.66542
Ar 3.82517 -3.81008 -2.65855
Ar 2.00068 1.94407 5.17647
Ar -1.87073 1.96624 5.3299
Ar -1.80264 -1.77093 5.23927
Ar 1.91197 -1.89502 5.3304
Ar 1.96087 1.65424 -5.29468
Ar -1.86808 2.1554 -5.11339
Ar -1.88391 -1.49569 -5.62233
Ar 1.76899 -1.99452 -5.27932
38
Atoms. Timestep: 130000
Ar 1.82722 1.86035 -0.0726041
Ar 5.53543 2.21279 -0.00380707
Ar 1.76011 5.53744 -0.0412806
Ar -1.90494 2.03733 0.0134231
Ar -5.4927 1.88334 0.13152
Ar -1.93497 5.79474 -0.137187
Ar -1.95425 -1.78503 0.0500904
Ar -5.78943 -1.693 0.105988
Ar -1.92519 -5.70281 0.0139286
Ar 1.92876 -1.9907 -0.00726455
Ar 5.76553 -1.66181 -0.0297817
Ar 2.07037 -5.87995 -0.0781405
Ar 0.044461 -0.0176387 2.68022
Ar 3.71064 0.0657362 2.586
Ar -3.83699 -0.0184465 2.76766
Ar 0.0939817 3.68587 2.66475
Ar -0.0359276 -3.87775 2.52455
Ar 3.71046 4.03005 2.72368
Ar -3.6224 3.86167 2.62334
Ar -3.69659 -3.77761 2.7035
Ar 4.04257 -3.90046 2.47984
Ar -0.0920169 0.0810814 -2.58577
Ar 3.82377 -0.0920933 -2.71676
Ar -3.85665 0.0485283 -2.66556
Ar -0.14458 3.7685 -2.81827
Ar -0.00214213 -3.91749 -2.65157
Ar 3.64821 3.84653 -2.69292
Ar -3.80032 3.84343 -2.71505
Ar -3.83029 -3.69233 -2.37572
Ar 3.86742 -3.80737 -2.5947
Ar 1.8737 1.70516 5.43496
Ar -1.87339 1.81502 5.41406
Ar -1.78712 -1.79066 5.3906
Ar 2.05632 -2.05329 5.0755
Ar 1.91717 1.80523 -5.15449
Ar -1.84639 1.71564 -5.4647
Ar -2.00514 -2.00676 -5.28147
Ar 1.7573 -1.93222 -5.29657
38
Atoms. Timestep: 140000
Ar 1.86216 1.8602 -0.025409
Ar 5.7133 1.72682 -0.184416
Ar 1.86581 5.65359 0.0104178
Ar -1.93399 1.89174 0.0149266
Ar -5.85078 1.77449 -0.022212
Ar -1.99969 5.77881 -0.0936632
Ar -1.84686 -1.78219 0.195621
Ar -5.72188 -1.95611 0.12234
Ar -1.93751 -5.59687 0.105009
Ar 1.87282 -1.84371 0.00759869
Ar 5.67281 -2.04238 0.0895022
Ar 2.1008 -5.70919 0.0299375
Ar 0.006738 0.0150893 2.68261
Ar 3.79983 -0.102318 2.65107
Ar -3.9526 -0.0115684 2.86205
Ar 0.0502134 3.75794 2.58911
Ar 0.135555 -3.84272 2.60599
Ar 3.85574 3.70941 2.53653
Ar -3.76942 3.85041 2.67301
Ar -3.70125 -3.81262 2.79546
Ar 3.76872 -3.84085 2.78387
Ar -0.114904 0.00538412 -2.6416
Ar 3.64665 0.105796 -2.80529
Ar -3.90603 -0.0307428 -2.82076
Ar 0.0531807 3.68314 -2.56287
Ar 0.059932 -3.72458 -2.53422
Ar 3.87188 3.86407 -2.82435
Ar -3.85318 3.71893 -2.58214
Ar -3.7108 -3.75057 -2.56274
Ar 3.88473 -3.64618 -2.73648
Ar 1.84938 1.9449 5.32425
Ar -1.89298 1.90677 5.36458
Ar -1.62629 -1.87822 5.3562
Ar 2.01814 -1.85959 5.42417
Ar 1.68027 1.964 -5.45232
Ar -2.07422 1.98781 -5.30019
Ar -1.80611 -1.78031 -5.46334
Ar 1.93182 -1.98759 -5.61227
38
Atoms. Timestep: 150000
Ar 1.92041 2.04266 0.0106928
Ar 5.60822 1.91927 0.00824767
Ar 1.98623 5.75754 -0.0898283
Ar -1.85521 1.97528 0.201245
Ar -5.77744 1.71928 0.0260405
Ar -1.74102 5.91715 -0.140835
Ar -1.88401 -1.94271 0.0604757
Ar -5.91778 -1.85134 0.10242
Ar -1.76715 -5.73656 0.0943047
Ar 2.02224 -1.86876 0.0728217
Ar 5.94682 -1.81528 0.024205
Ar 2.19131 -5.93735 -0.132483
Ar 0.0510078 0.0191324 2.63119
Ar 3.61326 0.218715 2.74724
Ar -3.82902 0.000151276 2.55597
Ar 0.216428 3.79053 2.65489
Ar 0.201386 -3.93633 2.62448
Ar 3.88954 3.93265 2.73642
Ar -3.89652 3.73123 2.53327
Ar -3.83622 -3.75842 2.67789
Ar 3.90853 -3.65874 2.58918
Ar -0.0342817 -0.117322 -2.58347
Ar 3.65969 -0.0794144 -2.65213
Ar -3.62336 0.0571324 -2.54761
Ar -0.0531946 3.65759 -2.70999
Ar -0.0221763 -3.74159 -2.58827
Ar 3.99497 3.92949 -2.62082
Ar -4.12477 3.82523 -2.50743
Ar -4.04316 -3.79585 -2.48195
Ar 3.4913 -3.846 -3.12516
Ar 1.85337 1.93083 5.46857
Ar -1.91079 1.73006 5.20445
Ar -1.88793 -1.92331 5.24756
Ar 2.0013 -1.81072 5.48048
Ar 2.09484 2.09341 -5.32213
Ar -1.92337 1.7496 -5.34063
Ar -2.0468 -2.43212 -5.34836
Ar 1.52536 -1.7441 -5.56093
38
Atoms. Timestep: 160000
Ar 1.79835 1.66542 0.0469349
Ar 5.50966 1.79766 -0.0390011
Ar 1.71904 5.69768 -0.110217
Ar -1.90359 1.80956 0.0639037
Ar -5.97383 1.71817 0.0527414
Ar -1.99541 5.95401 0.0437307
Ar -1.84463 -1.99876 -0.0166667
Ar -5.62926 -2.00457 0.0387787
Ar -1.97606 -5.52829 0.150855
Ar 1.91868 -1.81537 -0.0434366
Ar 5.78357 -2.16303 -0.22898
Ar 1.98501 -5.79675 -0.0212185
Ar -0.0381777 0.278429 2.75242
Ar 3.84744 0.051693 2.77086
Ar -3.62225 -0.05827 2.9098
Ar -0.0448714 3.83947 2.5572
Ar 0.0106528 -3.46386 2.76495
Ar 3.76149 3.83275 2.50322
Ar -3.99695 3.65021 2.39423
Ar -3.82973 -3.96682 3.00732
Ar 3.96117 -3.81401 2.61575
Ar -0.141322 -0.129621 -2.63471
Ar 4.17226 -0.175485 -2.89646
Ar -3.90306 0.126849 -2.77118
Ar -0.0432679 3.72148 -2.5967
Ar 0.0817944 -3.98433 -2.73492
Ar 3.72533 3.7806 -2.65593
Ar -3.859 3.83866 -2.54811
Ar -3.67677 -3.54603 -2.92918
Ar 3.71657 -3.96603 -2.85244
Ar 1.9518 2.13974 5.43071
Ar -1.9311 1.91145 5.52583
Ar -1.91109 -1.80344 5.55917
Ar 2.21602 -1.88206 5.4359
Ar 1.70677 1.76268 -5.42841
Ar -1.9643 2.27139 -5.21796
Ar -1.66327 -1.77123 -5.5815
Ar 2.08434 -1.97894 -5.31731
38
Atoms. Timestep: 170000
Ar 2.0424 1.95671 -0.123043
Ar 5.71639 2.02479 -0.177695
Ar 1.88758 5.69006 0.0798404
Ar -1.95329 2.02414 0.0190742
Ar -5.87765 1.57942 0.21749
Ar -1.95918 5.63672 -0.0586006
Ar -1.87153 -1.89169 0.111993
Ar -5.63068 -2.03849 0.18526
Ar -1.76173 -5.67127 -0.158037
Ar 1.87312 -1.88781 -0.0198941
Ar 5.70669 -2.02017 -0.120553
Ar 2.08367 -5.64468 0.0231285
Ar 0.1489 0.00109341 2.77146
Ar 3.85252 -0.0735703 2.60882
Ar -3.71403 0.0110724 2.68009
Ar -0.00339556 3.65473 2.6993
Ar 0.0591719 -3.85995 2.78676
Ar 3.86002 3.68431 2.63305
Ar -3.89087 3.78357 2.73095
Ar -3.86949 -3.76819 2.76094
Ar 3.64098 -3.84426 2.96663
Ar 0.0151899 -0.0443376 -2.58883
Ar 3.82895 0.0351702 -2.86915
Ar -3.67412 -0.00413432 -2.65785
Ar 0.014594 3.61302 -2.77838
Ar 0.0287476 -3.68902 -2.62874
Ar 3.80699 3.88553 -2.98227
Ar -4.14543 3.92341 -2.61037
Ar -3.86002 -3.55937 -2.63088
Ar 3.724 -3.87797 -2.8598
Ar 1.69502 1.8996 5.56679
Ar -2.01042 1.96277 5.35443
Ar -1.71536 -1.88143 5.25246
Ar 1.92546 -1.76144 5.78043
Ar 1.67859 1.79898 -5.6688
Ar -2.15458 2.10796 -5.30374
Ar -1.60206 -1.73723 -5.29335
Ar 2.10687 -2.01705 -5.6989
38
Atoms. Timestep: 180000
Ar 1.78918 1.83528 0.0466952
Ar 5.70672 1.96136 -0.088593
Ar 1.90588 5.57345 0.0876434
Ar -2.06926 1.91 -0.0544583
Ar -5.78487 1.81295 0.00147077
Ar -1.98458 5.63816 -0.0745996
Ar -1.96497 -1.84753 -0.0582115
Ar -5.64752 -1.99592 -0.183684
Ar -1.82289 -5.62141 0.016099
Ar 1.91363 -1.90696 0.0698825
Ar 5.88086 -1.80495 0.0881969
Ar 1.92249 -5.89098 0.251625
Ar -0.0103366 -0.0617959 2.57002
Ar 3.78834 0.111105 2.57248
Ar -3.80725 -0.113022 2.66452
Ar -0.0194448 3.74808 2.59267
Ar 0.138385 -3.87406 2.80287
Ar 3.71389 3.78955 2.7358
Ar -3.73229 3.7765 2.67091
Ar -3.60176 -3.9029 2.95917
Ar 4.03536 -3.8391 2.47447
Ar -0.00703199 0.103424 -2.6765
Ar 3.68458 -0.117753 -2.66536
Ar -3.93022 -0.0418168 -2.66379
Ar 0.0707737 3.86983 -2.57815
Ar -0.00958774 -3.57309 -2.70538
Ar 3.76493 3.83409 -2.62943
Ar -4.01849 3.60816 -2.74595
Ar -3.62318 -3.96422 -2.81328
Ar 3.61108 -3.8925 -2.49298
Ar 1.78862 1.84491 5.41579
Ar -1.90921 2.12071 5.41599
Ar -1.76768 -1.65691 5.31072
Ar 2.17278 -1.88491 5.19347
Ar 2.02293 2.02868 -5.32619
Ar -1.84298 1.93492 -5.25655
Ar -2.08808 -1.75817 -5.3904
Ar 1.73318 -1.75218 -5.53697
38
Atoms. Timestep: 190000
Ar 1.91872 1.97353 0.0202444
Ar 5.826 1.88997 -0.0656993
Ar 1.88681 5.83934 -0.105765
Ar -2.01891 1.92063 -0.0832579
Ar -5.7454 1.95858 0.239753
Ar -1.98331 5.61876 0.165325
Ar -1.83146 -1.86172 0.0127469
Ar -5.70072 -1.90226 0.029248
Ar -1.99801 -5.83982 -0.00249246
Ar 1.87628 -1.82925 -0.0506403
Ar 5.85489 -1.78973 0.0309988
Ar 1.85412 -5.72248 -0.159329
Ar 0.0303187 -0.0341779 2.58321
Ar 3.81605 0.178281 2.53476
Ar -3.81496 -0.0560733 2.69324
Ar -0.0429587 3.88777 2.69446
Ar -0.11628 -3.80915 2.54535
Ar 3.93135 3.8451 2.36225
Ar -3.86964 3.62787 2.81055
Ar -3.71203 -3.80425 2.69789
Ar 3.66064 -3.74441 2.56595
Ar -0.108845 0.00744318 -2.63137
Ar 3.77679 0.0750109 -2.60485
Ar -3.93064 -0.0526804 -2.60673
Ar -0.0113999 3.77918 -2.60119
Ar 0.211913 -3.73815 -2.71252
Ar 3.75704 3.76524 -2.53249
Ar -4.02599 3.83276 -2.64036
Ar -3.68788 -3.85131 -2.5762
Ar 4.13599 -3.64417 -2.54246
Ar 1.92421 1.96323 5.14155
Ar -1.87999 1.90689 5.48531
Ar -1.89139 -1.88447 5.35723
Ar 1.83084 -2.03807 5.41265
Ar 1.73575 1.87498 -5.33235
Ar -2.03033 1.70564 -5.34499
Ar -1.6497 -2.04075 -5.51234
Ar 2.02414 -2.00629 -5.27769
38
Atoms. Timestep: 200000
Ar 1.96598 1.95892 -0.0283921
Ar 5.83682 1.83472 -0.130878
Ar 1.98724 5.69859 -0.00698738
Ar -1.80513 1.84785 0.034749
Ar -6.02408 1.78606 0.0988463
Ar -1.7748 6.00341 -0.205544
Ar -1.89652 -1.88935 -0.0409334
Ar -6.15537 -1.98145 -0.100047
Ar -1.7242 -6.08283 -0.07532
Ar 1.99749 -1.74078 -0.0387858
Ar 5.86256 -1.65458 0.263971
Ar 2.21355 -5.81336 -0.0917302
Ar 0.161227 -0.141433 2.63383
Ar 3.82283 0.0761451 2.8083
Ar -3.82984 -0.0623215 2.47193
Ar 0.134624 3.65624 2.58317
Ar 0.0905696 -3.96327 2.53769
Ar 4.13426 3.74783 2.5152
Ar -3.61444 3.71756 2.32159
Ar -3.80499 -3.66299 2.43093
Ar 3.87746 -3.61097 2.6137
Ar 0.0898286 -0.0442223 -2.6049
Ar 3.839 0.0798599 -2.82713
Ar -3.93456 -0.0345265 -2.4389
Ar -0.112353 3.65024 -2.65521
Ar 0.251185 -3.83599 -2.41383
Ar 3.69454 3.85738 -2.70747
Ar -4.15233 3.70382 -2.36202
Ar -3.94513 -3.84734 -2.47687
Ar 3.95793 -3.72007 -2.42022
Ar 1.77353 2.01427 5.21291
Ar -2.26389 1.78616 5.16033
Ar -1.80304 -1.87925 5.46235
Ar 1.94053 -2.02659 5.55544
Ar 1.599 2.22697 -5.59158
Ar -2.0038 1.92535 -5.27697
Ar -2.03332 -1.81639 -4.91606
Ar 1.64965 -1.76265 -5.29516
38
Atoms. Timestep: 210000
Ar 1.99202 1.85934 -0.00708194
Ar 5.83025 1.74293 0.107271
Ar 1.70917 6.16829 -0.234781
Ar -2.10502 1.76456 -0.122367
Ar -5.7521 1.93403 0.300175
Ar -2.04234 5.57246 0.265507
Ar -2.16379 -2.02953 -0.163009
Ar -5.92629 -1.96748 -0.0705337
Ar -1.61181 -5.84389 0.00679397
Ar 2.01374 -1.87288 -0.0717918
Ar 5.76505 -2.45594 -0.192876
Ar 2.45025 -5.72248 0.14836
Ar -0.2714 -0.0491189 2.44046
Ar 3.72278 0.26947 2.95188
Ar -3.91063 -0.152699 2.69615
Ar 0.203772 3.62601 2.38972
Ar 0.0817135 -3.78576 2.56156
Ar 3.82761 3.91328 2.5028
Ar -3.71753 3.45892 2.98202
Ar -3.95527 -3.82765 2.64199
Ar 4.01517 -3.5757 2.77725
Ar -0.237574 -0.0328499 -2.83786
Ar 3.9252 0.121084 -2.84226
Ar -3.99254 0.238653 -2.81865
Ar -0.027717 3.85137 -2.62923
Ar -0.0044102 -3.90026 -2.55127
Ar 3.87348 3.97066 -2.01423
Ar -3.85359 3.96563 -2.59519
Ar -3.9539 -4.15554 -2.69091
Ar 3.86887 -4.18487 -3.05807
Ar 2.40864 2.60133 5.52083
Ar -1.50051 1.69321 5.47714
Ar -2.20179 -2.17896 5.27709
Ar 1.42674 -1.29016 5.42138
Ar 2.11164 2.27321 -5.35622
Ar -1.73531 1.70566 -5.53063
Ar -1.99888 -1.92396 -5.21343
Ar 1.73833 -1.77936 -5.46797
38
Atoms. Timestep: 220000
Ar 1.8099 2.22773 -0.138737
Ar 5.74759 1.6627 -0.133306
Ar 1.37556 5.94134 0.0634164
Ar -1.94461 1.80855 0.0532039
Ar -5.76072 1.72752 -0.12861
Ar -2.20275 5.29913 0.213822
Ar -2.10449 -2.0751 0.0199156
Ar -5.70739 -1.97857 -0.0887304
Ar -1.90093 -6.24446 -0.407053
Ar 2.06187 -1.80179 -0.0266396
Ar 5.93077 -2.03017 0.152086
Ar 1.9296 -5.8288 -0.198551
Ar -0.240405 -0.174618 2.74206
Ar 3.86889 0.241295 2.56625
Ar -3.9238 -0.385813 2.72023
Ar 0.203094 3.78126 2.76198
Ar -0.653427 -3.99618 3.00562
Ar 3.89245 4.06301 2.27305
Ar -3.4942 3.21026 3.0469
Ar -4.26372 -4.14177 2.87493
Ar 3.21576 -3.5384 2.95988
Ar -0.0374796 -0.0133458 -2.80936
Ar 3.61954 0.281001 -2.86535
Ar -3.54232 -0.0267619 -2.74909
Ar 0.0699382 3.63317 -2.84563
Ar -0.100854 -3.69855 -2.64549
Ar 3.96298 4.30923 -2.38115
Ar -3.6079 3.6513 -3.00637
Ar -3.87401 -3.76306 -2.84243
Ar 3.86776 -3.43167 -2.72615
Ar 2.89659 2.44202 5.37394
Ar -0.881437 1.88897 5.93432
Ar -2.21444 -1.83858 5.89465
Ar 1.57572 -1.33481 5.72521
Ar 1.949 2.05608 -5.54282
Ar -1.62848 1.6851 -5.75434
Ar -1.73363 -2.11876 -5.54857
Ar 1.84199 -1.48748 -5.54307
38
Atoms. Timestep: 230000
Ar 1.8183 2.1773 0.287136
Ar 5.65066 1.68125 -0.0731602
Ar 1.45498 5.8777 0.894124
Ar -1.94298 1.73389 -0.125619
Ar -5.33737 2.54856 -0.843474
Ar -2.3233 5.5967 0.164306
Ar -1.76178 -2.0533 0.168329
Ar -5.50318 -1.29287 0.0417909
Ar -1.48304 -5.84846 0.109522
Ar 1.92645 -1.45509 -0.0805583
Ar 5.46176 -2.1261 -0.30202
Ar 2.15886 -5.14031 0.300498
Ar 0.0757064 -0.248193 2.97345
Ar 3.60978 -0.202191 2.84008
Ar -3.55341 0.042742 2.76057
Ar -0.517474 3.54761 2.96995
Ar 0.193451 -3.84855 2.8852
Ar 4.26485 3.6505 2.8294
Ar -4.14608 3.61032 2.53031
Ar -3.65842 -4.12454 2.66161
Ar 4.20351 -3.62129 3.06461
Ar 0.237729 0.640431 -2.95345
Ar 3.81817 0.19358 -2.83257
Ar -3.2798 -0.463363 -2.97467
Ar 0.0146047 4.21585 -2.32633
Ar -0.445578 -3.03207 -3.11199
Ar 3.67586 4.62798 -2.1263
Ar -3.12194 3.18136 -3.6834
Ar -3.93715 -4.22178 -2.19231
Ar 3.28199 -3.67324 -2.99215
Ar 2.02976 2.00924 5.22131
Ar -1.49248 1.73049 6.06389
Ar -1.91336 -1.985 5.57955
Ar 1.90578 -1.87429 5.75853
Ar 2.04902 2.08653 -5.63768
Ar -1.84207 0.778156 -6.10624
Ar -3.3384 -2.67263 -5.84002
Ar 1.76856 -2.04593 -5.90224
38
Atoms. Timestep: 240000
Ar 1.85402 1.91343 0.121548
Ar 5.64115 1.67092 -0.0158148
Ar 2.16079 5.55633 0.0333012
Ar -2.07837 1.71993 -0.0770643
Ar -5.82844 1.88834 -0.0206283
Ar -1.96487 6.04679 -0.00724731
Ar -1.80842 -1.80432 0.0386658
Ar -5.71175 -2.01961 0.204434
Ar -1.79788 -5.92596 -0.0993705
Ar 1.94591 -1.93347 -0.00649977
Ar 5.7543 -1.89651 0.104454
Ar 2.46053 -5.60691 -0.113231
Ar 0.160821 -0.110542 2.48236
Ar 3.82209 -0.209822 2.6575
Ar -3.76419 0.0565583 2.67905
Ar 0.00905745 3.66964 2.46955
Ar 0.187109 -3.75039 2.70493
Ar 3.83252 3.53699 3.05531
Ar -4.04708 4.39925 2.88589
Ar -3.60099 -4.0278 2.43123
Ar 4.04742 -4.05014 3.10053
Ar 0.162193 -0.0778636 -2.74944
Ar 3.93287 0.0560776 -2.80025
Ar -3.64276 -0.0467495 -2.72007
Ar -0.532658 3.54508 -2.63304
Ar 0.255011 -3.86425 -2.65075
Ar 3.42551 3.64798 -2.88009
Ar -4.28834 4.11355 -2.32912
Ar -3.77152 -3.78648 -2.39784
Ar 4.12182 -3.55848 -2.92328
Ar 1.66524 2.11257 5.50497
Ar -2.13841 2.0481 5.2025
Ar -1.9356 -1.84652 5.12343
Ar 1.74029 -1.61118 5.44343
Ar 1.68623 1.8338 -5.60084
Ar -2.27486 1.94634 -5.43976
Ar -1.69856 -1.84865 -5.43197
Ar 2.02183 -1.78502 -5.34678
38
Atoms. Timestep: 250000
Ar 1.79333 1.99895 0.141853
Ar 5.75187 1.98895 0.0971559
Ar 1.80033 5.74577 0.185283
Ar -1.8978 1.55962 0.0497025
Ar -5.46927 2.1113 -0.289022
Ar -1.97066 5.26929 0.00106002
Ar -1.78818 -2.04409 0.0432026
Ar -5.69912 -1.70898 0.0012957
Ar -1.85659 -5.95831 0.441626
Ar 1.82703 -1.82137 -0.209819
Ar 5.95178 -2.0434 0.0238553
Ar 1.75811 -5.5542 -0.0712762
Ar 0.168148 0.0225904 2.69312
Ar 4.01684 0.115492 2.63211
Ar -3.98424 0.0324594 2.60078
Ar -0.0537442 3.67997 2.80475
Ar -0.0419279 -3.61947 2.61315
Ar 3.70999 3.93498 2.74168
Ar -3.96386 3.75859 2.7658
Ar -3.89765 -3.76553 2.60503
Ar 3.56918 -3.77857 2.54465
Ar -0.106118 -0.0127206 -2.69837
Ar 3.81568 0.427763 -2.65364
Ar -3.69671 -0.343393 -2.79807
Ar 0.101821 3.69862 -2.65837
Ar 0.0843959 -3.70665 -2.77722
Ar 3.81338 4.04908 -2.57294
Ar -3.699 3.86196 -3.03557
Ar -3.62889 -4.03805 -2.41487
Ar 3.8361 -3.6326 -2.76004
Ar 2.08043 1.72959 5.55425
Ar -1.6999 1.85484 5.59576
Ar -1.91909 -1.79882 5.31755
Ar 1.76283 -2.05383 5.41984
Ar 1.52992 1.8041 -5.53365
Ar -2.13785 1.78893 -5.53291
Ar -1.71064 -1.88795 -5.62029
Ar 1.85209 -1.66391 -5.24743
38
Atoms. Timestep: 260000
Ar 1.8616 1.83253 0.0921595
Ar 5.91144 2.16286 -0.0613925
Ar 2.16115 5.88532 0.0614548
Ar -1.81343 2.00818 -0.0606724
Ar -5.8447 1.6618 -0.276201
Ar -2.12059 5.78428 0.259689
Ar -1.87744 -2.0515 -0.0119565
Ar -5.59937 -2.00901 -0.138076
Ar -1.98036 -5.72939 0.344509
Ar 1.79814 -1.89863 -0.0415652
Ar 5.85954 -1.59905 -0.03607
Ar 1.69729 -6.00684 0.144333
Ar -0.092958 0.0747388 2.64908
Ar 3.94261 0.0058814 2.51078
Ar -3.77284 -0.181853 2.43438
Ar 0.0562447 3.93044 2.69248
Ar 0.0842662 -3.84981 2.51605
Ar 3.85516 3.91363 2.79744
Ar -3.9191 3.49193 2.70234
Ar -3.84403 -3.73339 2.77144
Ar 4.01493 -3.83462 2.41654
Ar -0.135141 -0.0267604 -2.60814
Ar 3.62683 0.0279494 -2.38337