38
Atoms. Timestep: 0
Ar 1.668 1.873 0
Ar 5.651 1.903 0.003
Ar 1.878 5.656 -0.01
Ar -1.867 1.863 -0.007
Ar -5.65 1.873 -0.014
Ar -1.898 5.645 -0.014
Ar -1.857 -1.873 0
Ar -5.64 -1.903 -0.003
Ar -1.867 -5.656 0.01
Ar 1.878 -1.863 0.007
Ar 5.661 -1.873 0.014
Ar 1.909 -5.645 0.014
Ar 0.002 0.007 2.642
Ar 3.751 0.017 2.659
Ar -3.75 -0.003 2.646
Ar -0.008 3.756 2.646
Ar 0.012 -3.745 2.659
Ar 3.761 3.786 2.656
Ar -3.778 3.766 2.646
Ar -3.757 -3.773 2.663
Ar 3.781 -3.752 2.673
Ar 0.009 -0.007 -2.642
Ar 3.761 0.003 -2.646
Ar -3.74 -0.017 -2.659
Ar -0.002 3.746 -2.659
Ar 0.019 -3.756 -2.646
Ar 3.768 3.773 -2.663
Ar -3.771 3.752 -2.673
Ar -3.75 -3.786 -2.656
Ar 3.788 -3.766 -2.646
Ar 1.871 1.897 5.329
Ar -1.888 1.886 5.325
Ar -1.878 -1.873 5.332
Ar 1.881 -1.863 5.339
Ar 1.888 1.873 -5.332
Ar -1.871 1.863 -5.339
Ar -1.861 -1.897 -5.329
Ar 1.898 -1.886 -5.325
38
Atoms. Timestep: 10000
Ar 1.90727 1.87931 -0.037806
Ar 5.7086 1.95078 0.00789669
Ar 1.88826 5.75782 -0.0450575
Ar -1.83933 1.89357 -0.00562005
Ar -5.6764 1.91893 -0.00385312
Ar -1.95015 5.69529 -0.00490209
Ar -1.92469 -1.88202 0.00674778
Ar -5.68372 -1.91735 0.00641672
Ar -1.8864 -5.75348 -0.0299908
Ar 1.86387 -1.89722 0.0715154
Ar 5.66683 -1.85889 0.079911
Ar 1.95287 -5.75104 -0.012778
Ar 0.0233795 -0.0048865 2.5822
Ar 3.74511 0.077911 2.67472
Ar -3.76189 0.0342822 2.64106
Ar -0.00488253 3.78938 2.62784
Ar -0.00122764 -3.81296 2.64921
Ar 3.71634 3.84269 2.60786
Ar -3.72639 3.72911 2.71599
Ar -3.81097 -3.78128 2.62035
Ar 3.79656 -3.82919 2.73635
Ar -0.0445608 0.0162744 -2.64418
Ar 3.73862 -0.0174213 -2.60506
Ar -3.75482 -0.0129024 -2.69439
Ar -0.0677938 3.76102 -2.62736
Ar 0.033218 -3.75334 -2.62502
Ar 3.78655 3.78287 -2.67747
Ar -3.80317 3.76208 -2.62887
Ar -3.79154 -3.82634 -2.68013
Ar 3.80429 -3.76359 -2.6299
Ar 1.89418 1.95218 5.31696
Ar -1.81914 1.82633 5.3194
Ar -1.93224 -1.87795 5.32449
Ar 1.91454 -1.87009 5.28871
Ar 1.86637 1.84891 -5.30032
Ar -1.90962 1.89442 -5.42918
Ar -1.83216 -1.89757 -5.34382
Ar 1.9162 -1.90462 -5.25191
38
Atoms. Timestep: 20000
Ar 1.94343 1.84812 -0.00213739
Ar 5.66598 1.87441 0.0787444
Ar 1.93191 5.73392 0.00521264
Ar -1.96281 1.80155 -0.0294715
Ar -5.77274 1.81588 -0.0168013
Ar -1.85953 5.54229 -0.0352154
Ar -1.84225 -1.88312 0.0274258
Ar -5.66561 -1.85734 0.0284376
Ar -1.8266 -5.65386 0.0166872
Ar 1.93434 -1.86724 -0.012561
Ar 5.68212 -1.90515 -0.0104531
Ar 1.96808 -5.5853 -0.0144315
Ar 0.0028623 0.00686937 2.66599
Ar 3.7472 -0.0188814 2.68862
Ar -3.78766 0.066549 2.69015
Ar -0.0417444 3.68666 2.61487
Ar -0.0196333 -3.74893 2.69878
Ar 3.80515 3.80386 2.72555
Ar -3.84503 3.75359 2.6195
Ar -3.78145 -3.7641 2.65156
Ar 3.81849 -3.79743 2.75341
Ar 0.0160731 -0.0190197 -2.64083
Ar 3.79706 0.025531 -2.65749
Ar -3.80871 -0.12702 -2.67883
Ar 0.0519433 3.71262 -2.64449
Ar -0.0188282 -3.7298 -2.66408
Ar 3.81627 3.7585 -2.63972
Ar -3.79537 3.7517 -2.72597
Ar -3.76131 -3.81963 -2.6257
Ar 3.8174 -3.72371 -2.72143
Ar 1.91453 1.91182 5.32003
Ar -1.97332 1.99505 5.28919
Ar -1.84528 -1.77124 5.33828
Ar 1.90615 -1.94074 5.40562
Ar 1.911 1.99709 -5.36369
Ar -1.88007 1.80058 -5.31727
Ar -1.97038 -1.89752 -5.42056
Ar 1.73034 -1.77555 -5.3969
38
Atoms. Timestep: 30000
Ar 1.92399 1.76499 -0.0515056
Ar 5.71397 2.04781 -0.00331665
Ar 1.80707 5.57513 -0.106817
Ar -1.85614 1.87704 0.0445449
Ar -5.57354 1.94074 0.104638
Ar -2.08394 5.63293 -0.0453191
Ar -1.81109 -1.83091 -0.0108329
Ar -5.65528 -1.7268 0.0459466
Ar -1.83271 -5.5812 -0.0311269
Ar 1.87783 -1.91605 -0.0525841
Ar 5.67186 -1.78441 -0.0105594
Ar 1.94433 -5.71289 0.116289
Ar 0.044586 0.0228794 2.72725
Ar 3.75277 -0.00764253 2.62541
Ar -3.73864 -0.0403044 2.70096
Ar -0.019624 3.76881 2.61595
Ar -0.000472211 -3.76431 2.64517
Ar 3.76957 3.79867 2.5819
Ar -3.72338 3.75872 2.819
Ar -3.87284 -3.80813 2.5224
Ar 3.79508 -3.73532 2.61409
Ar 0.0375793 -0.0376225 -2.67254
Ar 3.79402 0.0129772 -2.63664
Ar -3.7449 -0.0112289 -2.65197
Ar -0.0242465 3.63908 -2.66463
Ar -0.0392769 -3.79494 -2.6341
Ar 3.76884 3.79785 -2.72535
Ar -3.81865 3.70951 -2.70239
Ar -3.79601 -3.6474 -2.66872
Ar 3.76573 -3.76784 -2.60611
Ar 1.82004 1.9509 5.46357
Ar -1.97063 1.79906 5.36744
Ar -1.96363 -1.9714 5.32986
Ar 1.89238 -1.80835 5.32225
Ar 1.91329 1.82467 -5.29018
Ar -1.82136 1.86052 -5.39105
Ar -1.84477 -1.90217 -5.29904
Ar 1.90018 -1.93235 -5.39187
38
Atoms. Timestep: 40000
Ar 1.80059 1.89589 0.0406531
Ar 5.70875 1.81921 -0.0626847
Ar 1.84651 5.89598 -0.0184092
Ar -1.90091 1.82365 -0.00831105
Ar -5.71115 1.90119 -0.0259815
Ar -1.90349 5.71246 0.00377787
Ar -1.8746 -1.90309 0.0134511
Ar -5.72952 -1.98356 0.0608635
Ar -1.92057 -5.79372 0.0305496
Ar 1.85586 -1.84033 0.0196418
Ar 5.63901 -2.07607 0.00650899
Ar 1.85208 -5.68936 -0.023041
Ar -0.0790521 0.0202215 2.6385
Ar 3.77487 0.0342322 2.57719
Ar -3.79082 -0.113297 2.58797
Ar -0.0565214 3.7966 2.59409
Ar 0.085691 -3.73406 2.62839
Ar 3.8105 3.85902 2.45508
Ar -3.84445 3.72456 2.56352
Ar -3.71527 -3.8365 2.66509
Ar 3.72566 -3.80166 2.82086
Ar -0.00479719 0.017619 -2.65368
Ar 3.85068 -0.0265569 -2.6411
Ar -3.75293 -0.0669968 -2.6151
Ar 0.0667682 3.75512 -2.61737
Ar 0.0181662 -3.82566 -2.66728
Ar 3.77831 3.82082 -2.44952
Ar -3.73078 3.7938 -2.6017
Ar -3.71603 -3.83576 -2.58419
Ar 3.82155 -3.81115 -2.71835
Ar 1.93525 1.98975 5.24848
Ar -1.94811 1.8826 5.29084
Ar -1.82724 -1.94303 5.40084
Ar 1.90567 -1.73199 5.31987
Ar 1.97934 1.95869 -5.31209
Ar -1.84295 1.96493 -5.32622
Ar -1.95061 -1.84597 -5.32664
Ar 1.84654 -1.80657 -5.31451
38
Atoms. Timestep: 50000
Ar 1.91937 1.82411 -0.0288298
Ar 5.64452 2.04798 -0.0152555
Ar 1.98323 5.59031 0.135764
Ar -1.79743 1.90433 -0.0273916
Ar -5.58719 1.98294 -0.0547157
Ar -1.84223 5.59164 -0.00524806
Ar -1.90996 -1.82654 0.02639
Ar -5.75405 -1.92584 0.0238739
Ar -1.88042 -5.71875 0.00958569
Ar 1.8397 -1.89395 -0.00229529
Ar 5.72647 -1.82931 -0.0147413
Ar 2.05836 -5.60294 -0.059688
Ar 0.0268951 -0.0189323 2.66659
Ar 3.69396 0.0726554 2.66255
Ar -3.69946 -0.010334 2.57206
Ar -0.0294475 3.68107 2.71587
Ar 0.0023544 -3.81515 2.573
Ar 3.75039 3.76484 2.79818
Ar -3.78935 3.83527 2.6762
Ar -3.80891 -3.76433 2.6533
Ar 3.81417 -3.80866 2.61075
Ar -0.0371193 0.0344513 -2.70521
Ar 3.69564 -0.0328675 -2.69823
Ar -3.76523 -0.00325136 -2.70862
Ar 0.029986 3.85897 -2.70436
Ar -0.0401827 -3.67715 -2.60387
Ar 3.7289 3.79104 -2.69116
Ar -3.7248 3.74015 -2.79224
Ar -3.83897 -3.87047 -2.49304
Ar 3.77058 -3.7071 -2.635
Ar 1.80371 1.93496 5.39761
Ar -2.00579 1.8853 5.43054
Ar -1.93287 -1.88642 5.35075
Ar 1.95985 -1.85308 5.38791
Ar 1.9496 1.93205 -5.37635
Ar -1.90479 1.77996 -5.41944
Ar -1.94624 -2.00464 -5.23
Ar 1.89877 -2.0013 -5.42523
38
Atoms. Timestep: 60000
Ar 1.80815 1.82524 -0.044092
Ar 5.62441 1.83893 -0.0550126
Ar 1.72962 5.59895 -0.0046843
Ar -1.90026 1.82557 0.0259301
Ar -5.64102 1.86337 -0.037251
Ar -2.05763 5.67242 -0.00705604
Ar -1.82893 -1.88166 -0.00519671
Ar -5.59876 -1.90881 -0.0570474
Ar -1.91643 -5.59439 0.0263035
Ar 1.9224 -1.92533 0.0317201
Ar 5.71043 -1.91031 0.0129271
Ar 1.88142 -5.624 0.0595247
Ar -0.0381061 0.0661091 2.67378
Ar 3.69454 -0.00383463 2.57393
Ar -3.85052 -0.0431916 2.67702
Ar -0.0139323 3.86068 2.69565
Ar -0.00801299 -3.70275 2.7691
Ar 3.74512 3.74105 2.58828
Ar -3.74032 3.79274 2.7802
Ar -3.86167 -3.79348 2.73737
Ar 3.81136 -3.85384 2.66086
Ar -0.00919277 0.0374167 -2.74957
Ar 3.7433 -0.0582817 -2.69751
Ar -3.70781 0.0289519 -2.72203
Ar -0.106896 3.75172 -2.59985
Ar 0.0709959 -3.75646 -2.59729
Ar 3.69663 3.88126 -2.63682
Ar -3.74242 3.8252 -2.71736
Ar -3.69014 -3.66819 -2.79411
Ar 3.89051 -3.8541 -2.61751
Ar 1.98372 1.92333 5.31547
Ar -1.80587 1.79612 5.36558
Ar -1.86632 -1.86005 5.47298
Ar 1.89556 -1.8165 5.3098
Ar 1.86669 1.80384 -5.28301
Ar -1.87788 1.97832 -5.41929
Ar -1.77347 -1.77818 -5.52699
Ar 1.96273 -2.07687 -5.20474
38
Atoms. Timestep: 70000
Ar 1.85227 1.85771 0.0417996
Ar 5.56467 1.97875 0.0179845
Ar 1.95144 5.72349 -0.0572806
Ar -1.89961 1.86705 0.00111663
Ar -5.71698 1.86638 -0.0141859
Ar -1.76168 5.66352 0.0544147
Ar -1.8493 -1.86507 -0.015828
Ar -5.60112 -1.99978 -0.079022
Ar -1.88928 -5.64886 0.0316775
Ar 1.9031 -1.9347 -0.0313408
Ar 5.6637 -1.89586 0.00740072
Ar 1.99279 -5.72024 0.0713808
Ar 0.00569196 -0.0399955 2.5916
Ar 3.76979 -0.0509005 2.61573
Ar -3.7886 0.05531 2.62539
Ar 0.0124105 3.7989 2.67383
Ar -0.0162909 -3.74577 2.67251
Ar 3.73233 3.78125 2.65217
Ar -3.79002 3.75423 2.64053
Ar -3.69513 -3.77151 2.72423
Ar 3.78875 -3.75181 2.72777
Ar 0.0479808 -0.0707484 -2.60596
Ar 3.82734 0.0661013 -2.67157
Ar -3.79111 0.0427079 -2.67614
Ar -0.0135041 3.73473 -2.56902
Ar 0.0167505 -3.79081 -2.65768
Ar 3.74283 3.8056 -2.71389
Ar -3.80995 3.81047 -2.6195
Ar -3.75147 -3.8232 -2.75922
Ar 3.84779 -3.78074 -2.64146
Ar 1.75849 1.85381 5.35061
Ar -1.90954 1.96501 5.24925
Ar -1.90386 -1.82428 5.36766
Ar 1.85504 -1.86833 5.33183
Ar 1.84342 1.85714 -5.35515
Ar -1.81652 1.97723 -5.28839
Ar -1.93576 -1.94151 -5.37678
Ar 1.76513 -1.93427 -5.31649
38
Atoms. Timestep: 80000
Ar 1.87596 1.90906 -0.0355513
Ar 5.72678 1.93383 0.0556699
Ar 1.87903 5.68709 -0.00357587
Ar -1.85769 1.81521 0.0150077
Ar -5.66443 1.89817 0.0171231
Ar -1.87716 5.5822 -0.0281906
Ar -1.80484 -1.88595 -0.043019
Ar -5.80265 -1.93354 0.0129176
Ar -1.98081 -5.66913 0.0282197
Ar 1.90071 -1.85074 -0.0468454
Ar 5.5944 -1.79207 -0.0198217
Ar 1.89749 -5.62265 0.0237952
Ar -0.0287299 -0.025055 2.62236
Ar 3.72112 0.0383523 2.65542
Ar -3.73463 -0.00545313 2.61627
Ar 0.0150898 3.63344 2.6814
Ar -0.0111448 -3.77673 2.64998
Ar 3.70294 3.80722 2.66993
Ar -3.73434 3.80575 2.63203
Ar -3.78807 -3.72261 2.62584
Ar 3.78541 -3.70382 2.64769
Ar -0.044842 -0.0691242 -2.67696
Ar 3.79217 0.0812834 -2.69244
Ar -3.80082 -0.00855843 -2.67063
Ar 0.0488852 3.68758 -2.69823
Ar 0.0508521 -3.76723 -2.66163
Ar 3.91995 3.84584 -2.65417
Ar -3.74921 3.76325 -2.62934
Ar -3.83012 -3.79397 -2.63877
Ar 3.8098 -3.73878 -2.63205
Ar 1.8979 1.88595 5.38032
Ar -1.97066 1.85733 5.30385
Ar -1.83401 -1.87059 5.35722
Ar 1.92416 -1.84172 5.3492
Ar 1.91935 1.95717 -5.23426
Ar -1.87616 1.74517 -5.37668
Ar -1.96882 -1.99332 -5.30211
Ar 1.89915 -1.86184 -5.29998
38
Atoms. Timestep: 90000
Ar 1.87797 1.88323 -0.0185175
Ar 5.67935 1.81781 -0.00485216
Ar 1.81303 5.79513 -0.0490677
Ar -1.85636 1.87956 -0.0476853
Ar -5.70832 1.89729 0.0331985
Ar -1.94513 5.63904 -0.0212276
Ar -1.8999 -1.86375 -0.0453899
Ar -5.62889 -1.92496 -0.00788407
Ar -1.8679 -5.56583 -0.00758292
Ar 1.75986 -1.82902 0.0189432
Ar 5.6522 -1.95372 0.0464574
Ar 1.90277 -5.63519 0.0283191
Ar 0.0126625 0.0319015 2.67669
Ar 3.76239 0.00989827 2.60978
Ar -3.65242 -0.0184712 2.63649
Ar -0.0169315 3.747 2.62893
Ar -0.0182584 -3.70425 2.67489
Ar 3.76326 3.82213 2.48381
Ar -3.75552 3.69012 2.71503
Ar -3.82291 -3.7971 2.67153
Ar 3.72741 -3.70555 2.66093
Ar -0.00212926 0.0728643 -2.68584
Ar 3.79568 -0.0529994 -2.56009
Ar -3.70871 -0.0568285 -2.65966
Ar -0.0876306 3.79701 -2.65757
Ar 0.0154392 -3.71077 -2.67987
Ar 3.7539 3.73738 -2.62426
Ar -3.86716 3.71477 -2.66119
Ar -3.84416 -3.78755 -2.69844
Ar 3.81048 -3.80793 -2.53552
Ar 1.97142 1.92798 5.25989
Ar -1.79854 1.78433 5.41096
Ar -1.94709 -1.95945 5.39899
Ar 1.84458 -1.83053 5.33299
Ar 1.96321 1.82418 -5.30664
Ar -1.92594 1.94387 -5.36982
Ar -1.76284 -1.8606 -5.37641
Ar 2.01312 -1.94999 -5.27032
38
Atoms. Timestep: 100000
Ar 1.89518 1.88535 0.0118681
Ar 5.60995 1.97313 0.0424145
Ar 1.94986 5.71628 -0.00582083
Ar -1.87355 1.91272 -0.0573723
Ar -5.59097 1.8547 -0.0583692
Ar -1.84577 5.7488 -0.0682468
Ar -1.8583 -1.83891 0.0222112
Ar -5.67669 -1.91836 0.0816718
Ar -1.78006 -5.74825 0.00876254
Ar 1.8525 -1.86352 -0.0035174
Ar 5.63081 -1.85905 -0.0178393
Ar 1.95418 -5.61538 0.0079861
Ar -0.0174123 0.0687455 2.62994
Ar 3.7507 -0.040273 2.69292
Ar -3.7391 0.0266296 2.66391
Ar -0.0127292 3.80083 2.61906
Ar -0.00341028 -3.75694 2.636
Ar 3.73709 3.79815 2.88183
Ar -3.75797 3.82501 2.59308
Ar -3.75192 -3.85152 2.60594
Ar 3.73778 -3.82773 2.63233
Ar -0.0231946 -0.00195843 -2.63842
Ar 3.71523 -0.0196993 -2.64685
Ar -3.73459 -0.0292846 -2.64251
Ar 0.00679631 3.76792 -2.72628
Ar -0.00999135 -3.81292 -2.61116
Ar 3.7949 3.87924 -2.74032
Ar -3.76135 3.79368 -2.70387
Ar -3.78454 -3.78239 -2.56888
Ar 3.79614 -3.75371 -2.72179
Ar 1.83375 1.76784 5.4558
Ar -1.94231 1.94146 5.31128
Ar -1.89589 -1.89817 5.28576
Ar 1.86086 -1.92946 5.30106
Ar 1.91829 1.91934 -5.40074
Ar -1.84769 1.74979 -5.31445
Ar -1.91823 -2.00326 -5.22412
Ar 1.78367 -1.87781 -5.33326
38
Atoms. Timestep: 110000
Ar 1.92597 1.86609 0.057479
Ar 5.73825 1.8563 0.0200683
Ar 1.84006 5.70738 -0.0331595
Ar -1.93054 1.92568 0.0246
Ar -5.6399 1.77037 -0.0119475
Ar -2.00143 5.69584 0.0470777
Ar -1.87726 -1.84129 -0.0300205
Ar -5.59252 -1.99985 -0.0354369
Ar -1.99228 -5.66 -0.0129116
Ar 1.93918 -1.8807 0.0136088
Ar 5.72921 -1.91695 0.0318051
Ar 1.76329 -5.67879 0.0136207
Ar 0.0457858 0.00250492 2.64938
Ar 3.81992 -0.043808 2.67037
Ar -3.79314 0.0110922 2.74019
Ar -0.00322795 3.76769 2.62017
Ar -0.0171046 -3.7655 2.66757
Ar 3.80965 3.87694 2.61253
Ar -3.88311 3.77661 2.68736
Ar -3.79732 -3.7272 2.70735
Ar 3.67822 -3.86361 2.71787
Ar 0.0703542 0.03302 -2.58645
Ar 3.74348 0.0357818 -2.64353
Ar -3.68717 -0.0545829 -2.6792
Ar -0.0075664 3.7753 -2.58244
Ar -0.0155982 -3.74173 -2.70898
Ar 3.73962 3.82086 -2.66589
Ar -3.83622 3.6571 -2.72573
Ar -3.81123 -3.82182 -2.74338
Ar 3.74658 -3.77818 -2.66535
Ar 1.95913 2.0264 5.34564
Ar -1.85125 1.87713 5.31436
Ar -1.91299 -1.88115 5.34119
Ar 1.88546 -1.84397 5.28969
Ar 1.93742 1.95106 -5.3225
Ar -1.81467 1.8499 -5.35615
Ar -1.81871 -1.90218 -5.39623
Ar 1.91363 -1.88073 -5.37262
38
Atoms. Timestep: 120000
Ar 1.84344 1.84337 -0.00684241
Ar 5.68386 1.94868 -0.023651
Ar 1.89868 5.61176 0.0151089
Ar -1.90515 1.85804 -0.041996
Ar -5.72911 1.97188 -0.0552903
Ar -1.90579 5.66858 0.0464847
Ar -1.83397 -1.86814 0.0220853
Ar -5.62096 -1.8364 -0.0413443
Ar -1.85524 -5.63113 -0.000440445
Ar 1.87299 -1.93829 -0.0263204
Ar 5.68481 -1.83517 -0.0245754
Ar 1.93742 -5.73913 0.0732601
Ar -0.0394275 -0.0653558 2.67523
Ar 3.73608 0.0022964 2.70416
Ar -3.83725 0.00584265 2.64889
Ar -0.0432021 3.68619 2.62502
Ar -0.0249505 -3.77253 2.70197
Ar 3.77151 3.77805 2.61572
Ar -3.8223 3.80829 2.6911
Ar -3.78438 -3.73963 2.6572
Ar 3.77523 -3.71239 2.73279
Ar -0.0609898 -0.0919568 -2.69711
Ar 3.74245 0.0211778 -2.70772
Ar -3.83615 0.0404593 -2.69669
Ar 0.0280886 3.75224 -2.62982
Ar 0.0919065 -3.83774 -2.64253
Ar 3.82861 3.80108 -2.7084
Ar -3.77 3.84058 -2.63933
Ar -3.69596 -3.75051 -2.6707
Ar 3.82537 -3.73595 -2.63155
Ar 1.86291 1.98124 5.38331
Ar -1.89124 1.78103 5.38838
Ar -1.88203 -1.9088 5.34304
Ar 1.90725 -1.88696 5.40144
Ar 1.82455 1.83925 -5.35254
Ar -1.91177 1.93029 -5.35177
Ar -1.82434 -1.82802 -5.41144
Ar 1.96106 -1.99121 -5.36512
38
Atoms. Timestep: 130000
Ar 1.85056 1.90855 -0.032567
Ar 5.74304 2.02744 0.0269171
Ar 1.90001 5.71339 0.0680407
Ar -1.87343 1.90107 0.0185888
Ar -5.67654 1.88563 -0.0894257
Ar -1.88017 5.61985 -0.0275433
Ar -1.94404 -1.86668 -0.0151645
Ar -5.70324 -1.89193 0.014364
Ar -1.99744 -5.68595 0.0550203
Ar 1.88725 -1.85448 0.000476487
Ar 5.67552 -1.83665 0.00124321
Ar 1.94396 -5.60335 0.0931154
Ar -0.0234455 -0.0251547 2.62829
Ar 3.78548 0.0238248 2.64258
Ar -3.76717 -0.0174288 2.61477
Ar 0.00739241 3.74559 2.63884
Ar -0.0136954 -3.78649 2.63657
Ar 3.76815 3.72705 2.73069
Ar -3.72695 3.77432 2.61698
Ar -3.7298 -3.79451 2.69614
Ar 3.87253 -3.74889 2.61385
Ar -0.0141804 0.0220025 -2.65738
Ar 3.73808 0.0619256 -2.68209
Ar -3.7974 -0.0426977 -2.69767
Ar 0.0112056 3.77581 -2.70687
Ar -0.0154023 -3.77173 -2.5864
Ar 3.81437 3.77082 -2.55393
Ar -3.70881 3.72091 -2.75868
Ar -3.79011 -3.7693 -2.59406
Ar 3.7676 -3.73525 -2.63415
Ar 1.79016 1.84432 5.38614
Ar -1.95539 1.84655 5.3352
Ar -1.86172 -1.91203 5.38199
Ar 1.883 -1.96595 5.30614
Ar 1.9487 1.88938 -5.37979
Ar -1.84266 1.83679 -5.38153
Ar -1.90115 -1.8672 -5.33178
Ar 1.83775 -1.91852 -5.37691
38
Atoms. Timestep: 140000
Ar 1.83739 1.89738 -0.000319698
Ar 5.61591 1.94431 0.0523371
Ar 1.87465 5.63117 0.00320069
Ar -1.88785 1.91006 -0.00326347
Ar -5.65496 1.83359 -0.0398001
Ar -1.88448 5.72961 0.0293736
Ar -1.89429 -1.88036 0.023537
Ar -5.62373 -1.95854 -0.0564151
Ar -1.84782 -5.67791 -0.0179253
Ar 1.8811 -1.86695 0.0287437
Ar 5.62672 -1.97802 -0.0327273
Ar 1.93585 -5.71003 0.0435197
Ar 0.0067444 0.0392043 2.65152
Ar 3.72935 0.00174142 2.66004
Ar -3.71973 -0.00908241 2.65644
Ar 0.00760636 3.85167 2.72532
Ar -0.0168017 -3.77501 2.6602
Ar 3.71749 3.85396 2.68287
Ar -3.79827 3.77927 2.62107
Ar -3.74174 -3.88351 2.71321
Ar 3.77505 -3.76494 2.71297
Ar 0.0170324 -0.0228893 -2.60702
Ar 3.79625 -0.0570711 -2.60823
Ar -3.75173 -0.00666887 -2.70744
Ar -0.0111045 3.80124 -2.64786
Ar 0.0335559 -3.78167 -2.69018
Ar 3.76517 3.82426 -2.64541
Ar -3.72854 3.78119 -2.65871
Ar -3.79227 -3.76505 -2.69148
Ar 3.77568 -3.82997 -2.5871
Ar 1.87536 1.8796 5.22272
Ar -1.88664 1.91129 5.21683
Ar -1.86418 -1.91473 5.32776
Ar 1.84568 -1.8498 5.31334
Ar 1.89194 1.82922 -5.28932
Ar -1.84788 1.95173 -5.30205
Ar -1.94376 -1.82088 -5.42017
Ar 1.88928 -1.89641 -5.33959
38
Atoms. Timestep: 150000
Ar 1.86074 1.86035 0.0281145
Ar 5.60257 1.9147 0.0643906
Ar 1.91036 5.67568 -0.0359245
Ar -1.83403 1.83049 0.027397
Ar -5.66235 1.97368 -0.0463211
Ar -1.86582 5.62506 0.0492015
Ar -1.85097 -1.88766 -0.00742515
Ar -5.71695 -1.86398 -0.0289728
Ar -1.8631 -5.66531 0.0126442
Ar 1.86102 -1.88022 0.0281587
Ar 5.66831 -1.85585 -0.0147879
Ar 1.95374 -5.69264 -0.00702606
Ar -0.01118 -0.0067396 2.67691
Ar 3.72868 0.00210885 2.73796
Ar -3.80699 -0.00163218 2.67789
Ar -0.0205775 3.83598 2.70061
Ar 0.055044 -3.74065 2.63226
Ar 3.69519 3.81306 2.69456
Ar -3.75199 3.72534 2.7015
Ar -3.81355 -3.79172 2.61123
Ar 3.83024 -3.83754 2.71212
Ar -0.031655 -0.0249695 -2.65634
Ar 3.80986 -0.0112959 -2.66625
Ar -3.72947 0.000216461 -2.65627
Ar -0.0221514 3.74948 -2.71473
Ar 0.0626921 -3.7553 -2.65018
Ar 3.71599 3.73344 -2.74416
Ar -3.74748 3.80144 -2.63824
Ar -3.75472 -3.70451 -2.7569
Ar 3.79234 -3.80893 -2.68552
Ar 1.88211 1.97736 5.42783
Ar -1.85386 1.87705 5.36509
Ar -1.94496 -1.92808 5.30892
Ar 1.81431 -1.84122 5.41263
Ar 1.87652 1.80624 -5.37892
Ar -1.9048 1.90089 -5.41889
Ar -1.85541 -1.94493 -5.39714
Ar 1.92428 -1.85839 -5.36541
38
Atoms. Timestep: 160000
Ar 1.89044 1.89261 0.0210636
Ar 5.71713 1.87044 0.0191491
Ar 1.85561 5.67834 -0.00905673
Ar -1.80793 1.83116 -0.00983714
Ar -5.64174 1.88326 -0.0974989
Ar -1.98843 5.64612 -0.0593738
Ar -1.88365 -1.91826 0.0111
Ar -5.72864 -1.94086 0.053421
Ar -1.92328 -5.68558 -0.0540199
Ar 1.90194 -1.81635 0.00794482
Ar 5.72079 -1.87549 -0.0410824
Ar 1.81046 -5.71527 -0.00577085
Ar -0.0210063 0.0523454 2.6413
Ar 3.77641 -0.0177265 2.69793
Ar -3.81132 0.00659539 2.64713
Ar -0.0529461 3.82384 2.63041
Ar 0.0308024 -3.76268 2.62026
Ar 3.81646 3.84577 2.75552
Ar -3.84004 3.72074 2.5783
Ar -3.7711 -3.77344 2.66943
Ar 3.73844 -3.79129 2.59867
Ar 0.0824353 0.00736511 -2.64833
Ar 3.81321 -0.0345771 -2.68217
Ar -3.74794 -0.0187129 -2.61853
Ar 0.0431886 3.71199 -2.64452
Ar -0.0138719 -3.7082 -2.62108
Ar 3.7805 3.76095 -2.56614
Ar -3.73527 3.74785 -2.67661
Ar -3.82361 -3.74944 -2.57686
Ar 3.84271 -3.74329 -2.67224
Ar 1.87517 1.89547 5.38593
Ar -1.92168 1.91606 5.3765
Ar -1.90677 -1.88021 5.26653
Ar 1.85483 -1.8866 5.30783
Ar 1.87961 1.89949 -5.321
Ar -1.88082 1.80902 -5.34973
Ar -1.85349 -1.85889 -5.31839
Ar 1.92538 -1.82155 -5.31619
38
Atoms. Timestep: 170000
Ar 1.8501 1.88684 0.0469675
Ar 5.6842 1.8475 0.0274585
Ar 1.84875 5.70712 -0.033709
Ar -1.90696 1.87432 -0.066167
Ar -5.62519 1.86118 -0.0284448
Ar -1.93831 5.6514 -0.0556878
Ar -1.83546 -1.87829 0.0145053
Ar -5.58935 -1.88155 -0.014882
Ar -1.87617 -5.70874 -0.0251321
Ar 1.87785 -1.86198 -0.0408634
Ar 5.64873 -1.98931 -0.00749294
Ar 1.88895 -5.60653 -0.0523002
Ar 0.0436093 0.0173334 2.71246
Ar 3.73323 -0.0192569 2.66477
Ar -3.67832 -0.00913838 2.63644
Ar -0.0305464 3.69218 2.61437
Ar 0.0352151 -3.79277 2.67765
Ar 3.78309 3.72934 2.65525
Ar -3.81027 3.80031 2.59541
Ar -3.75658 -3.88029 2.6861
Ar 3.72053 -3.78685 2.70329
Ar -0.0201667 0.0401935 -2.57303
Ar 3.76067 0.00391835 -2.62573
Ar -3.81625 0.0213064 -2.72922
Ar -0.0129735 3.8167 -2.68903
Ar 0.0364584 -3.75887 -2.67231
Ar 3.7994 3.76762 -2.56876
Ar -3.85266 3.78701 -2.71888
Ar -3.74388 -3.72906 -2.64046
Ar 3.84432 -3.85725 -2.67607
Ar 1.88306 1.94542 5.33838
Ar -1.93242 1.94834 5.33649
Ar -1.89846 -1.90566 5.34773
Ar 1.80997 -1.84218 5.36775
Ar 1.89705 1.89863 -5.26452
Ar -1.93053 1.91631 -5.35231
Ar -1.83529 -1.8801 -5.26898
Ar 1.94662 -1.82414 -5.32107
38
Atoms. Timestep: 180000
Ar 1.91445 1.87677 0.0294373
Ar 5.62381 1.93901 0.00185484
Ar 1.93198 5.66257 0.0105059
Ar -1.85606 1.80904 -0.0387333
Ar -5.62241 1.87877 -0.0212097
Ar -1.81887 5.65909 -0.0768043
Ar -1.83431 -1.87508 0.0194844
Ar -5.63396 -1.86473 -0.069166
Ar -1.88587 -5.70136 -0.0488532
Ar 1.85993 -1.84427 0.0668741
Ar 5.6214 -1.78749 0.0679691
Ar 1.89155 -5.63509 0.00667599
Ar -0.0368575 -0.0147071 2.64565
Ar 3.69397 0.0356732 2.69651
Ar -3.74867 -0.00678703 2.67336
Ar 0.00735776 3.72965 2.7212
Ar -0.059302 -3.75223 2.67475
Ar 3.69031 3.8555 2.72702
Ar -3.6887 3.76161 2.73647
Ar -3.77191 -3.82403 2.59241
Ar 3.74092 -3.6892 2.70779
Ar 0.0621438 -0.0486554 -2.68078
Ar 3.74188 -0.0109708 -2.6475
Ar -3.71328 -0.040004 -2.66128
Ar 0.0199165 3.75705 -2.64337
Ar 0.0818319 -3.78063 -2.64478
Ar 3.74751 3.75409 -2.76981
Ar -3.80643 3.787 -2.75867
Ar -3.70388 -3.77434 -2.65791
Ar 3.79018 -3.74401 -2.7159
Ar 1.88064 1.88656 5.374
Ar -1.85912 1.83908 5.42905
Ar -1.98086 -1.90539 5.35467
Ar 1.81577 -1.88764 5.36752
Ar 1.90023 1.86672 -5.31476
Ar -1.91961 1.84584 -5.34647
Ar -1.90313 -1.84342 -5.38105
Ar 1.82949 -1.91298 -5.42614
38
Atoms. Timestep: 190000
Ar 1.92279 1.84176 -0.00678534
Ar 5.70377 1.85516 0.121932
Ar 1.84289 5.67913 0.0112591
Ar -1.90382 1.86856 0.0644407
Ar -5.69075 1.85352 -0.0537055
Ar -1.93519 5.66939 -0.0613997
Ar -1.86193 -1.88739 7.24632e-05
Ar -5.61433 -1.93837 -0.038669
Ar -1.8902 -5.60252 0.127069
Ar 1.93665 -1.89137 -0.0478176
Ar 5.78494 -1.87474 -0.0677801
Ar 1.87597 -5.71626 -0.164743
Ar 0.0223616 0.017705 2.65011
Ar 3.73367 0.0149014 2.66934
Ar -3.84985 0.0144319 2.62794
Ar 0.0277536 3.77301 2.60861
Ar 0.000364967 -3.73932 2.71954
Ar 3.785 3.79645 2.67831
Ar -3.7696 3.79597 2.61879
Ar -3.807 -3.67155 2.67134
Ar 3.80976 -3.80235 2.57102
Ar -0.0134251 0.00912542 -2.59028
Ar 3.77519 0.0760087 -2.62665
Ar -3.72687 -0.10426 -2.58786
Ar -0.00221444 3.74425 -2.63036
Ar -0.0737781 -3.69328 -2.65954
Ar 3.86667 3.78694 -2.51678
Ar -3.79474 3.72209 -2.76076
Ar -3.69806 -3.83147 -2.66015
Ar 3.75912 -3.70458 -2.74289
Ar 1.78415 1.88269 5.3053
Ar -1.92193 1.92624 5.30564
Ar -1.96218 -1.83325 5.3193
Ar 1.83254 -1.94408 5.4167
Ar 1.9177 1.96225 -5.247
Ar -1.83003 1.75475 -5.32093
Ar -1.87878 -1.99412 -5.38896
Ar 1.84541 -1.81442 -5.31365
38
Atoms. Timestep: 200000
Ar 1.8801 1.86628 0.00690861
Ar 5.72796 1.8955 -0.069061
Ar 1.80087 5.6746 0.049332
Ar -1.88292 1.93291 0.0338617
Ar -5.63915 1.84966 0.00408224
Ar -1.99731 5.65055 -0.0664296
Ar -1.84055 -1.84488 -0.0345584
Ar -5.64843 -1.89211 -0.119029
Ar -1.80267 -5.62893 -0.111815
Ar 1.87191 -1.86619 0.0240594
Ar 5.63756 -1.89103 0.123037
Ar 1.95101 -5.71531 0.082389
Ar 0.0386114 0.0402974 2.65528
Ar 3.76045 0.00255433 2.69602
Ar -3.73156 0.0150601 2.67693
Ar 0.0135484 3.84654 2.75072
Ar -0.0720752 -3.77033 2.64154
Ar 3.81403 3.7378 2.53421
Ar -3.83161 3.75407 2.68073
Ar -3.772 -3.84053 2.55064
Ar 3.76971 -3.8042 2.70488
Ar 0.0273732 0.00482078 -2.63171
Ar 3.74793 0.0581207 -2.69713
Ar -3.64236 0.0429322 -2.65685
Ar 0.000141071 3.74434 -2.697
Ar 0.0463913 -3.68535 -2.64304
Ar 3.66931 3.75252 -2.66873
Ar -3.77308 3.81354 -2.66777
Ar -3.81004 -3.77248 -2.72683
Ar 3.87138 -3.85185 -2.53214
Ar 1.889 1.90476 5.35948
Ar -1.88096 1.8815 5.4632
Ar -1.97159 -1.91992 5.30729
Ar 1.8182 -1.92243 5.31327
Ar 1.73279 1.79963 -5.39479
Ar -1.96224 1.87858 -5.34651
Ar -1.80714 -1.79763 -5.31522
Ar 1.99942 -1.9424 -5.27926
38
Atoms. Timestep: 210000
Ar 1.87497 1.91669 -0.0146025
Ar 5.64216 1.91256 -0.0477713
Ar 1.87259 5.68953 0.0947238
Ar -1.83006 1.86718 -0.025774
Ar -5.68529 1.8413 -0.0331827
Ar -1.8257 5.67879 0.00840353
Ar -1.828 -1.90256 -0.0546806
Ar -5.61647 -1.95821 0.00444678
Ar -1.8672 -5.69691 0.0291825
Ar 1.85216 -1.86993 0.0179345
Ar 5.57022 -1.94057 -0.00314336
Ar 1.82417 -5.67676 -0.0794112
Ar 0.00705225 0.0513887 2.61451
Ar 3.79122 0.0187487 2.74587
Ar -3.65724 -0.0622548 2.62392
Ar -0.0612595 3.73204 2.69625
Ar 0.0102847 -3.76497 2.70076
Ar 3.7225 3.71091 2.7872
Ar -3.78753 3.78225 2.62935
Ar -3.6718 -3.79184 2.72564
Ar 3.74281 -3.74832 2.62029
Ar -0.0152987 0.0363051 -2.69035
Ar 3.73694 0.0649314 -2.65267
Ar -3.71457 0.0118987 -2.71779
Ar 0.0191 3.77201 -2.71296
Ar 0.0283901 -3.73679 -2.64041
Ar 3.78166 3.90521 -2.69079
Ar -3.67504 3.73657 -2.71972
Ar -3.72335 -3.88453 -2.668
Ar 3.81549 -3.76524 -2.74538
Ar 1.70655 1.81412 5.43437
Ar -2.06257 1.98467 5.32967
Ar -1.89149 -1.74586 5.38627
Ar 1.90805 -1.93704 5.39266
Ar 1.89375 1.91405 -5.31332
Ar -1.82401 1.84948 -5.37791
Ar -1.95494 -1.92376 -5.31371
Ar 1.89372 -1.88407 -5.33987
38
Atoms. Timestep: 220000
Ar 1.90001 1.90836 -0.0336487
Ar 5.6803 1.92669 -0.082415
Ar 1.85681 5.75227 0.00768246
Ar -1.87544 1.89301 -0.0302595
Ar -5.65061 1.83192 -0.00944453
Ar -1.88028 5.68479 0.0442936
Ar -1.83291 -1.88685 -0.0551795
Ar -5.64694 -1.96419 -0.18152
Ar -1.90249 -5.60807 -0.0328151
Ar 1.86976 -1.85218 0.0400427
Ar 5.65276 -1.77926 0.131054
Ar 1.84941 -5.7059 0.017698
Ar -0.0240293 0.0108105 2.58965
Ar 3.72074 0.000842949 2.66056
Ar -3.68351 0.0268251 2.63605
Ar -0.0721032 3.7226 2.68319
Ar 0.0181754 -3.72413 2.6245
Ar 3.7931 3.7231 2.6136
Ar -3.88766 3.77401 2.65239
Ar -3.79949 -3.74825 2.6436
Ar 3.74712 -3.77411 2.69359
Ar 0.0767638 0.0125234 -2.65679
Ar 3.78262 0.00850807 -2.60766
Ar -3.67395 -0.063969 -2.58646
Ar -0.0225101 3.82378 -2.61441
Ar 0.00531878 -3.83929 -2.71481
Ar 3.74728 3.80924 -2.71408
Ar -3.87307 3.80396 -2.58212
Ar -3.78702 -3.91177 -2.80371
Ar 3.7788 -3.83417 -2.49002
Ar 1.83511 1.87898 5.26231
Ar -1.85753 1.83348 5.42262
Ar -1.88808 -1.85588 5.31417
Ar 1.86221 -1.83964 5.28148
Ar 1.84379 1.80774 -5.36004
Ar -1.87161 1.94307 -5.18224
Ar -1.77617 -1.82331 -5.30472
Ar 1.98732 -1.96457 -5.27612
38
Atoms. Timestep: 230000
Ar 1.90213 1.89257 -0.0159002
Ar 5.63536 1.96594 -0.00441096
Ar 1.88553 5.65198 -0.0666598
Ar -1.97233 1.84756 -0.0210334
Ar -5.75229 1.8799 0.00701033
Ar -1.84294 5.64878 -0.00814556
Ar -1.86197 -1.84186 -0.0611852
Ar -5.66793 -1.82208 -0.0380492
Ar -1.77914 -5.64778 -0.0135637
Ar 1.96769 -1.85413 -0.0288326
Ar 5.71785 -1.85261 0.133963
Ar 2.01151 -5.68287 0.0563624
Ar -0.0617217 0.00595286 2.60397
Ar 3.7005 -0.0299442 2.70518
Ar -3.78966 -0.0165559 2.63345
Ar -0.0401818 3.70077 2.62893
Ar 0.0751779 -3.729 2.58925
Ar 3.68213 3.74375 2.75838
Ar -3.78704 3.85906 2.68194
Ar -3.82619 -3.70425 2.50652
Ar 3.75712 -3.81469 2.72375
Ar 0.00650761 -0.0312625 -2.63971
Ar 3.76618 -0.0433153 -2.6251
Ar -3.74614 0.0518283 -2.74331
Ar -0.0243835 3.73816 -2.70497
Ar 0.0647981 -3.75096 -2.6225
Ar 3.81349 3.74875 -2.71492
Ar -3.8107 3.80413 -2.6123
Ar -3.74926 -3.78745 -2.60313
Ar 3.77642 -3.83025 -2.66523
Ar 1.81884 1.90815 5.41006
Ar -1.977 1.84908 5.34051
Ar -1.83681 -1.94076 5.21014
Ar 1.94865 -1.88525 5.43669
Ar 1.86145 1.87808 -5.33802
Ar -1.8735 1.84748 -5.36267
Ar -1.83311 -1.92426 -5.25243
Ar 1.84296 -1.83167 -5.28403
38
Atoms. Timestep: 240000
Ar 1.88529 1.88266 -0.00469449
Ar 5.67549 1.92123 0.0668429
Ar 1.86514 5.72274 0.00324302
Ar -1.84825 1.87333 -0.0126187
Ar -5.62134 1.79324 0.0194071
Ar -1.92901 5.61541 -0.0838161
Ar -1.87135 -1.85148 0.0559866
Ar -5.71661 -1.92597 0.0118222
Ar -1.93755 -5.66061 0.000851804
Ar 1.86403 -1.86588 0.0625329
Ar 5.60254 -1.88558 0.0517077
Ar 1.9156 -5.66795 0.00217806
Ar 0.0396088 0.0272811 2.63438
Ar 3.71504 0.0424534 2.68751
Ar -3.77163 -0.0699317 2.68894
Ar -0.00330934 3.76303 2.63112
Ar -0.00389859 -3.76855 2.7409
Ar 3.70831 3.82508 2.67034
Ar -3.74544 3.66989 2.5778
Ar -3.74856 -3.73182 2.68644
Ar 3.74997 -3.8395 2.71239
Ar 0.030992 -0.0301602 -2.64818
Ar 3.75955 0.0711219 -2.68742
Ar -3.7182 -0.0479718 -2.71322
Ar 0.0493328 3.70123 -2.6559
Ar 0.0132421 -3.76037 -2.60015
Ar 3.74352 3.83888 -2.58697
Ar -3.81866 3.68907 -2.75659
Ar -3.78504 -3.72004 -2.67655
Ar 3.72856 -3.64979 -2.68805
Ar 1.84137 1.90353 5.41359
Ar -1.94762 1.87856 5.25659
Ar -1.90955 -1.90601 5.34014
Ar 1.85612 -1.9719 5.37066
Ar 2.07596 1.98386 -5.42548
Ar -1.73875 1.83854 -5.35661
Ar -1.81287 -1.86795 -5.39675
Ar 1.80997 -1.81866 -5.39238
38
Atoms. Timestep: 250000
Ar 1.87166 1.90557 0.0854915
Ar 5.59241 1.82402 0.0274705
Ar 1.81376 5.73322 0.00648401
Ar -1.88724 1.83928 0.01808
Ar -5.69735 1.85164 0.00587195
Ar -1.94089 5.60568 -0.0531541
Ar -1.84823 -1.89523 -0.0227615
Ar -5.65188 -1.92649 -0.0302052
Ar -1.81992 -5.69125 0.0124195
Ar 1.86295 -1.84394 0.00935868
Ar 5.65731 -1.94304 0.0730246
Ar 1.90944 -5.62807 0.0142747
Ar -0.0162732 -0.0103049 2.67301
Ar 3.73014 -0.0146821 2.71748
Ar -3.82023 -0.0183604 2.63002
Ar -0.0192224 3.7723 2.70735
Ar -0.0529196 -3.72445 2.66201
Ar 3.80912 3.93037 2.56442
Ar -3.81331 3.80156 2.64454
Ar -3.79762 -3.86375 2.58244
Ar 3.7224 -3.79291 2.74251
Ar 0.0453668 -0.0090353 -2.63441
Ar 3.78557 -0.00110072 -2.59335
Ar -3.69068 -0.0132467 -2.66825
Ar 0.0295814 3.74975 -2.60409
Ar 0.0544495 -3.7418 -2.68326
Ar 3.72219 3.79662 -2.57551
Ar -3.73075 3.70248 -2.69312
Ar -3.76822 -3.77812 -2.73678
Ar 3.89107 -3.76159 -2.7115
Ar 1.9569 1.98574 5.27046
Ar -1.85894 1.82738 5.2709
Ar -1.96078 -1.90515 5.31716
Ar 1.79741 -1.82228 5.35982
Ar 1.86483 1.86458 -5.28568
Ar -1.84041 1.95628 -5.35344
Ar -1.86089 -1.79101 -5.35892
Ar 1.96117 -1.96966 -5.39018
38
Atoms. Timestep: 260000
Ar 1.84302 1.88212 0.00311206
Ar 5.66093 1.94077 0.0962351
Ar 1.87043 5.62343 0.0580449
Ar -1.87395 1.93661 -0.0610755
Ar -5.64142 1.93847 -0.13477
Ar -1.86304 5.64831 -0.0171771
Ar -1.87795 -1.8867 0.0591869
Ar -5.71773 -1.85754 -0.039451
Ar -1.81323 -5.70829 0.0246386
Ar 1.89332 -1.92622 -0.0260404
Ar 5.6839 -1.79484 0.0549736
Ar 2.07459 -5.71935 -0.10482