38
Atoms. Timestep: 0
Ar 1.668 1.873 0
Ar 5.651 1.903 0.003
Ar 1.878 5.656 -0.01
Ar -1.867 1.863 -0.007
Ar -5.65 1.873 -0.014
Ar -1.898 5.645 -0.014
Ar -1.857 -1.873 0
Ar -5.64 -1.903 -0.003
Ar -1.867 -5.656 0.01
Ar 1.878 -1.863 0.007
Ar 5.661 -1.873 0.014
Ar 1.909 -5.645 0.014
Ar 0.002 0.007 2.642
Ar 3.751 0.017 2.659
Ar -3.75 -0.003 2.646
Ar -0.008 3.756 2.646
Ar 0.012 -3.745 2.659
Ar 3.761 3.786 2.656
Ar -3.778 3.766 2.646
Ar -3.757 -3.773 2.663
Ar 3.781 -3.752 2.673
Ar 0.009 -0.007 -2.642
Ar 3.761 0.003 -2.646
Ar -3.74 -0.017 -2.659
Ar -0.002 3.746 -2.659
Ar 0.019 -3.756 -2.646
Ar 3.768 3.773 -2.663
Ar -3.771 3.752 -2.673
Ar -3.75 -3.786 -2.656
Ar 3.788 -3.766 -2.646
Ar 1.871 1.897 5.329
Ar -1.888 1.886 5.325
Ar -1.878 -1.873 5.332
Ar 1.881 -1.863 5.339
Ar 1.888 1.873 -5.332
Ar -1.871 1.863 -5.339
Ar -1.861 -1.897 -5.329
Ar 1.898 -1.886 -5.325
38
Atoms. Timestep: 10000
Ar 1.83954 1.98823 0.0593315
Ar 5.46539 2.03565 -0.0675884
Ar 2.02492 5.63656 0.109886
Ar -1.75968 1.65441 0.0304533
Ar -5.64253 1.66339 0.012165
Ar -1.65798 5.51413 -0.152646
Ar -1.80592 -1.93606 0.104687
Ar -5.53983 -2.2438 -0.100914
Ar -2.10033 -5.64571 0.0771137
Ar 1.92744 -1.77478 0.105174
Ar 5.52156 -1.70807 0.036775
Ar 1.61956 -5.78472 -0.0660019
Ar 0.0130832 -0.066705 2.77504
Ar 3.78488 0.199683 2.73665
Ar -3.84887 -0.0474687 2.86697
Ar -0.0913425 3.66329 2.68396
Ar 0.00400516 -3.71611 2.78408
Ar 3.68103 3.91813 2.83667
Ar -3.86586 3.82499 2.47963
Ar -3.9202 -3.69609 2.91163
Ar 3.77121 -3.65639 2.77552
Ar -0.0338834 -0.0121078 -2.76273
Ar 3.7221 0.0553233 -2.83406
Ar -3.60815 -0.102075 -2.75031
Ar 0.333394 3.79167 -2.70196
Ar -0.161123 -3.64752 -2.67155
Ar 4.02388 3.81015 -3.12655
Ar -3.66752 3.70328 -2.59503
Ar -3.77712 -3.9011 -2.97643
Ar 3.61298 -3.85045 -2.60016
Ar 1.9607 2.04577 5.5457
Ar -1.7951 1.89853 5.30953
Ar -1.93947 -2.04248 5.41149
Ar 1.90477 -1.78359 5.5056
Ar 1.72554 1.82918 -5.62557
Ar -1.82898 2.04541 -5.28047
Ar -1.82732 -1.7021 -5.42051
Ar 1.93725 -1.95944 -5.42555
38
Atoms. Timestep: 20000
Ar 1.78434 1.76013 0.0672357
Ar 5.49598 1.90917 0.225452
Ar 2.04308 5.46569 -0.147315
Ar -1.91889 1.92399 -0.0230002
Ar -5.69281 2.01735 0.154086
Ar -1.66136 5.87383 -0.0861682
Ar -1.83686 -1.81672 -0.0917997
Ar -5.74258 -1.83326 -0.194851
Ar -1.70073 -5.73919 -0.00917311
Ar 1.99094 -1.94008 0.0216854
Ar 5.73842 -1.6803 0.0323325
Ar 2.02329 -5.51041 -0.000491055
Ar 0.0873515 0.00178303 2.87462
Ar 3.80048 -0.0120156 2.85359
Ar -3.92934 -0.180588 2.6326
Ar -0.0239546 3.82648 2.63285
Ar -0.0171406 -3.76846 2.61644
Ar 3.87111 3.83157 2.95799
Ar -3.96215 4.00116 2.66397
Ar -3.75457 -4.02666 2.5038
Ar 3.67476 -3.78845 2.87487
Ar 0.0240674 -0.01766 -2.66794
Ar 3.67008 -0.112164 -2.70142
Ar -3.86183 0.007819 -2.713
Ar -0.103167 3.78693 -2.66869
Ar -0.0420289 -3.65914 -2.62931
Ar 3.6773 3.70883 -2.93814
Ar -3.98537 3.75072 -2.8505
Ar -3.63341 -3.66295 -2.5945
Ar 3.92481 -3.96791 -2.8954
Ar 1.86134 1.95471 5.69674
Ar -2.01127 1.92848 5.14742
Ar -1.70917 -1.92481 5.39415
Ar 2.06243 -1.94944 5.72453
Ar 1.87259 1.86694 -5.50183
Ar -1.85797 2.07409 -5.39182
Ar -1.96232 -1.99036 -5.4202
Ar 1.80657 -2.10811 -5.54882
38
Atoms. Timestep: 30000
Ar 2.00237 1.91356 0.144096
Ar 5.86528 1.8593 0.281422
Ar 1.8225 5.77499 -0.0626264
Ar -1.86686 1.80642 0.0124525
Ar -5.54623 1.99032 -0.0463072
Ar -2.05445 5.58812 -0.30653
Ar -1.8071 -1.8496 0.00338573
Ar -5.5152 -1.86258 -0.0327871
Ar -1.92712 -5.56841 0.146037
Ar 1.87475 -1.96307 0.037791
Ar 5.72352 -2.04571 0.126337
Ar 1.9427 -5.62504 -0.17148
Ar -0.0686813 0.107276 2.59474
Ar 3.78856 -0.0755247 2.83011
Ar -3.79709 -0.0549923 2.6508
Ar -0.0352721 3.73467 2.71196
Ar -0.0685483 -3.47632 2.75032
Ar 3.73573 3.99882 2.69832
Ar -3.70568 3.71672 2.60092
Ar -3.88595 -3.76406 2.69153
Ar 3.87029 -4.03113 2.70567
Ar -0.100693 0.0581587 -2.68274
Ar 3.74094 0.165843 -2.51898
Ar -3.73716 -0.021384 -2.69351
Ar 0.101496 3.63451 -2.58782
Ar -0.0365251 -3.76194 -2.70831
Ar 3.74794 3.79899 -2.56558
Ar -3.85961 3.55948 -2.88518
Ar -3.78441 -4.00876 -2.56577
Ar 3.74792 -3.58648 -2.82521
Ar 1.91308 1.82067 5.57691
Ar -1.84175 1.91305 5.34298
Ar -2.05556 -1.86788 5.34122
Ar 2.06232 -1.92022 5.23434
Ar 1.8583 2.1713 -5.49023
Ar -1.75734 1.75357 -5.48815
Ar -2.10453 -2.10232 -5.4899
Ar 1.76008 -1.77938 -5.36024
38
Atoms. Timestep: 40000
Ar 1.96563 1.92599 0.0976598
Ar 5.63493 2.08239 0.185632
Ar 1.72401 5.80097 -0.0415105
Ar -1.85129 2.01809 -0.0899064
Ar -5.53784 1.98773 -0.030186
Ar -2.00049 5.64489 -0.0995686
Ar -1.84495 -1.8077 0.0181616
Ar -5.80108 -1.97243 0.193509
Ar -1.93471 -5.82907 -0.0949241
Ar 1.99478 -1.76523 0.140483
Ar 5.5828 -1.77621 0.102111
Ar 1.96048 -5.70421 -0.0775175
Ar -0.0258318 -0.106852 2.71265
Ar 3.91942 0.0964617 2.81262
Ar -3.67774 -0.0339748 2.76233
Ar -0.0317688 3.69196 2.68865
Ar -0.0611335 -3.79461 2.52474
Ar 3.7104 3.88851 2.72357
Ar -3.88117 3.74824 2.78362
Ar -3.67519 -3.93233 2.51318
Ar 3.72386 -3.78969 2.62239
Ar 0.00303304 -0.00270569 -2.57527
Ar 3.76769 0.036056 -2.62929
Ar -3.75313 -0.111838 -2.74106
Ar 0.0436418 3.51461 -2.73714
Ar -0.0604822 -3.66589 -2.50874
Ar 3.72339 3.79821 -2.62124
Ar -3.66122 3.82947 -2.85218
Ar -3.76381 -3.70996 -2.58561
Ar 3.52907 -3.71218 -2.8078
Ar 1.82392 1.97155 5.37589
Ar -1.74204 1.92461 5.26531
Ar -1.84264 -2.17406 5.32385
Ar 1.91729 -1.81021 5.3366
Ar 2.03154 1.78339 -5.35221
Ar -1.69605 1.91069 -5.48293
Ar -1.88679 -2.02857 -5.43092
Ar 1.67547 -1.9251 -5.42494
38
Atoms. Timestep: 50000
Ar 1.93009 1.82572 -0.00413172
Ar 5.58631 2.40706 0.220166
Ar 2.02606 5.74199 0.0377344
Ar -1.92297 1.86451 -0.104267
Ar -5.85924 1.67461 -0.0486922
Ar -1.90866 5.73068 -0.0769522
Ar -1.88752 -1.84128 -0.000479167
Ar -5.41281 -1.86589 0.0920924
Ar -2.07211 -5.63575 -0.119541
Ar 1.83729 -1.95047 -0.00138472
Ar 5.71283 -1.51047 -0.0625013
Ar 1.6017 -5.98971 0.0746108
Ar -0.0746372 -0.042774 2.7133
Ar 3.88843 -0.131275 2.69241
Ar -3.79328 0.160634 2.61756
Ar -0.111137 3.78196 2.42169
Ar 0.162235 -3.93893 2.67359
Ar 3.81524 4.00675 3.1542
Ar -3.83589 3.86992 2.63894
Ar -3.74279 -3.56287 2.83863
Ar 4.17847 -3.9768 2.29636
Ar -0.0380267 -0.0925533 -2.6387
Ar 3.72021 0.0147117 -2.5724
Ar -3.82614 -0.124202 -2.74779
Ar 0.0471344 3.73281 -2.58165
Ar -0.142161 -3.73594 -2.69652
Ar 3.76956 3.77359 -2.70793
Ar -3.90775 3.89463 -2.79143
Ar -3.81413 -3.81656 -3.02554
Ar 3.81603 -4.14022 -2.32905
Ar 1.57584 1.86004 5.27785
Ar -2.07173 2.16311 5.43357
Ar -1.58504 -1.9329 5.59435
Ar 2.18594 -2.11768 5.17994
Ar 1.76143 1.91112 -5.32889
Ar -2.04349 1.80961 -5.2915
Ar -1.67881 -1.80754 -5.56873
Ar 2.11553 -2.00864 -5.25891
38
Atoms. Timestep: 60000
Ar 1.82625 1.82744 -0.0580923
Ar 5.59039 1.8322 0.446895
Ar 2.13011 5.74132 0.0104282
Ar -2.00807 1.67204 -0.0323262
Ar -5.77051 1.72086 -0.154424
Ar -1.72551 5.78825 -0.0811966
Ar -1.85113 -1.90634 0.152861
Ar -5.49438 -2.14799 -0.217214
Ar -1.68621 -5.64423 -0.252692
Ar 1.75322 -1.71465 0.0764728
Ar 5.63231 -1.74211 0.111547
Ar 1.88503 -5.75881 -0.0440795
Ar -0.0246737 0.203689 2.63923
Ar 3.74949 -0.110525 2.7366
Ar -3.83584 -0.0768933 2.72252
Ar 0.0391282 3.80049 2.46809
Ar 0.0480482 -3.77386 2.70607
Ar 3.60393 3.83934 2.7956
Ar -3.70037 3.6388 2.61517
Ar -3.73671 -3.87685 3.03264
Ar 3.75522 -3.79712 2.68595
Ar -0.150808 -0.0516109 -2.75072
Ar 3.84056 -0.0625149 -2.68199
Ar -3.82282 -0.0328432 -2.78533
Ar -0.098062 3.76951 -2.63291
Ar -0.0546951 -3.70956 -2.73184
Ar 3.78296 3.76384 -2.54942
Ar -4.18417 4.08093 -2.78243
Ar -3.6854 -3.91279 -3.08348
Ar 3.83982 -3.82857 -2.67827
Ar 2.09783 2.043 5.63383
Ar -1.63539 2.02912 5.4448
Ar -1.77857 -1.65684 5.4839
Ar 1.87739 -1.94989 5.43498
Ar 1.84124 1.91136 -5.22003
Ar -2.02263 1.94549 -5.50219
Ar -1.9168 -1.72637 -5.63991
Ar 1.8918 -2.12629 -5.31908
38
Atoms. Timestep: 70000
Ar 1.80319 1.76422 -0.140331
Ar 5.48311 1.75346 0.146854
Ar 1.82749 5.75503 0.129877
Ar -1.94618 1.9537 -0.155506
Ar -5.81431 1.65118 -0.0953257
Ar -1.78411 5.98818 -0.114236
Ar -1.87318 -1.82417 -0.00745354
Ar -5.74725 -2.10227 0.0737734
Ar -2.04056 -5.59312 -0.0621614
Ar 1.88639 -1.96459 -0.0694495
Ar 6.09399 -1.92986 0.246477
Ar 1.87835 -5.87432 0.0788136
Ar 0.0552773 -0.0536383 2.49995
Ar 3.60216 -0.0865972 2.56121
Ar -3.66109 -0.00226712 2.51604
Ar -0.0589478 3.65515 2.53679
Ar 0.147888 -3.80214 2.66332
Ar 3.95552 3.67238 2.99768
Ar -3.81629 3.91039 2.47615
Ar -3.63623 -3.82998 2.84363
Ar 3.8834 -3.85455 2.83075
Ar 0.0438291 -0.0496144 -2.79165
Ar 3.75493 -0.00118317 -2.70799
Ar -3.95555 0.169266 -2.86907
Ar 0.0507449 3.80192 -2.65477
Ar 0.123197 -3.79277 -2.76741
Ar 3.70861 3.88115 -2.45261
Ar -4.20544 3.89597 -2.45881
Ar -3.90394 -3.85331 -2.71816
Ar 4.00462 -3.8773 -2.4233
Ar 1.76942 1.85589 5.37568
Ar -2.0517 1.88154 5.23454
Ar -1.86974 -1.74993 5.55504
Ar 2.0876 -1.76901 5.30033
Ar 1.85378 1.8487 -5.35707
Ar -2.02283 2.21806 -5.34875
Ar -1.67611 -1.62367 -5.46653
Ar 2.05198 -2.02092 -5.40633
38
Atoms. Timestep: 80000
Ar 1.79964 1.96512 0.0353774
Ar 5.81142 1.5615 -0.0962409
Ar 1.48907 5.98375 0.148876
Ar -2.05565 1.97109 -0.0571434
Ar -6.0141 1.88358 -0.018747
Ar -2.30141 5.77429 -0.246662
Ar -1.91297 -1.90275 -0.171481
Ar -5.60253 -2.16918 -0.0841436
Ar -1.81297 -5.67547 -0.0413287
Ar 1.95693 -1.87439 -0.0580908
Ar 5.75366 -2.41618 0.0448119
Ar 1.96649 -5.49846 0.0591568
Ar 0.0277523 0.106992 2.66407
Ar 3.70428 -0.189859 2.61574
Ar -3.83988 0.0201808 2.61017
Ar 0.00816814 3.91215 2.64267
Ar -0.0628857 -3.64846 2.65163
Ar 3.73866 3.98164 2.33303
Ar -3.72043 3.74641 3.11966
Ar -3.65612 -3.79165 2.50212
Ar 3.55554 -3.72663 2.94666
Ar -0.0173336 -0.0339151 -2.62697
Ar 3.72178 -0.157039 -2.4946
Ar -3.8926 -0.115997 -2.72177
Ar -0.0384625 3.74258 -2.65227
Ar 0.237077 -3.72174 -2.72701
Ar 3.84357 4.17591 -2.00448
Ar -3.80998 3.67996 -2.86212
Ar -3.45825 -3.97164 -2.95068
Ar 3.76603 -3.90117 -2.85168
Ar 2.28216 1.80194 5.54311
Ar -1.50786 2.04433 5.74308
Ar -2.1695 -1.76815 5.3287
Ar 1.69177 -1.75125 5.43974
Ar 2.09462 2.09844 -5.13283
Ar -1.82573 1.7405 -5.4741
Ar -1.70674 -2.19941 -5.48949
Ar 1.95876 -1.67602 -5.66677
38
Atoms. Timestep: 90000
Ar 1.90486 1.97412 -0.0254945
Ar 5.73703 2.08307 0.267174
Ar 2.14908 5.79068 0.0192283
Ar -1.94314 2.03373 0.0434281
Ar -6.05497 1.87064 -0.180317
Ar -1.60273 5.92474 -0.123339
Ar -1.80938 -1.97478 0.0973186
Ar -5.83991 -2.20598 -0.194791
Ar -1.8966 -5.8532 -0.038137
Ar 1.91934 -1.90429 -0.087615
Ar 5.64715 -1.98103 0.226489
Ar 2.02885 -5.67437 -0.00177043
Ar -0.034315 -0.0546256 2.50751
Ar 3.54162 0.0718978 2.53709
Ar -3.80693 -0.052238 2.5418
Ar 0.116425 3.90622 2.57972
Ar 0.127412 -4.08425 2.73114
Ar 3.85333 3.94088 2.7985
Ar -3.89302 3.8249 2.31503
Ar -3.73444 -3.8832 2.54866
Ar 3.87224 -4.14208 2.94919
Ar -0.0424592 0.0236654 -2.60048
Ar 4.12372 0.00857526 -2.42619
Ar -3.87121 -0.0897274 -2.35478
Ar -0.0414746 3.83648 -2.51061
Ar 0.0530116 -4.03216 -2.76358
Ar 3.84593 3.83614 -2.62624
Ar -3.87801 3.81758 -2.49563
Ar -3.75072 -4.23846 -2.88224
Ar 4.0106 -3.90927 -2.73844
Ar 1.5529 1.93677 5.19061
Ar -2.16411 2.04117 4.98096
Ar -1.74535 -1.91188 5.21807
Ar 1.98056 -1.73147 5.52906
Ar 1.92769 2.19725 -5.57515
Ar -1.96265 1.96611 -5.21908
Ar -2.0679 -1.74325 -5.00122
Ar 1.74957 -1.61736 -5.23588
38
Atoms. Timestep: 100000
Ar 1.77912 1.88457 -0.0668242
Ar 5.78559 1.75173 0.12069
Ar 1.57724 5.91573 0.149689
Ar -1.89196 1.87267 -0.116579
Ar -5.886 1.89642 -0.135753
Ar -2.24257 5.84723 0.0935547
Ar -1.92738 -1.96739 -0.175374
Ar -5.74618 -1.98202 -0.0930391
Ar -1.99919 -5.80328 0.0396859
Ar 1.93178 -1.88281 -0.0459178
Ar 5.83217 -1.90751 0.0307148
Ar 2.13059 -5.67502 0.178991
Ar -0.119961 -0.137709 2.54597
Ar 3.76362 0.0120514 2.68604
Ar -3.70598 0.0188886 2.45067
Ar 0.0389397 3.68943 2.55822
Ar -0.175735 -3.84676 2.62748
Ar 3.9189 3.87444 2.46605
Ar -3.56434 3.71768 2.6409
Ar -3.7838 -3.90575 2.66536
Ar 3.50996 -3.57782 2.71172
Ar -0.00563134 -0.194987 -2.73162
Ar 4.06148 0.0876689 -2.54787
Ar -3.94151 -0.0475014 -2.64266
Ar -0.187509 3.73544 -2.68326
Ar 0.0349423 -3.9692 -2.75499
Ar 3.66092 4.04094 -2.45302
Ar -3.93524 3.87677 -2.55434
Ar -3.74619 -3.70607 -2.73168
Ar 4.07178 -3.99728 -2.62613
Ar 2.08319 2.20464 5.43207
Ar -1.6839 1.69759 5.37167
Ar -1.99867 -1.92464 5.2688
Ar 1.66123 -1.60373 5.36473
Ar 2.01425 1.96396 -5.0662
Ar -1.82733 1.84575 -5.39952
Ar -1.81904 -1.96642 -5.34376
Ar 2.33438 -1.83672 -5.23444
38
Atoms. Timestep: 110000
Ar 1.7879 1.90204 0.0802665
Ar 5.71772 1.91423 -0.124368
Ar 1.87461 5.88583 0.0471169
Ar -1.97313 1.89068 -0.0984105
Ar -5.96982 1.72217 -0.0778055
Ar -1.98 5.68353 0.192717
Ar -1.87604 -1.97988 -0.123702
Ar -5.77469 -2.06723 -0.0844712
Ar -1.77346 -5.72832 -0.250009
Ar 1.85831 -1.9584 0.0509697
Ar 5.89402 -1.7483 0.186407
Ar 1.98935 -5.62802 0.258123
Ar -0.0719023 0.00965425 2.52613
Ar 3.70263 -0.06936 2.6174
Ar -3.76881 -0.138308 2.47919
Ar 0.0116151 3.92648 2.64745
Ar -0.00215951 -3.75681 2.50868
Ar 3.83931 3.69368 2.70277
Ar -3.92078 3.61383 2.53049
Ar -3.7829 -4.03188 2.68359
Ar 3.97724 -3.61355 2.82218
Ar -0.0582197 -0.0444264 -2.54245
Ar 3.7327 -0.103004 -2.50316
Ar -3.76246 0.0754656 -2.78997
Ar -0.113121 4.00461 -2.6255
Ar 0.15312 -3.91273 -2.6911
Ar 3.73719 3.76373 -2.52738
Ar -3.90489 3.94963 -2.70349
Ar -3.68397 -3.67599 -2.89482
Ar 4.00438 -3.846 -2.31723
Ar 1.74348 1.89529 5.13779
Ar -1.84757 1.93243 5.24882
Ar -1.84907 -1.70302 5.33502
Ar 1.89968 -1.92055 5.4015
Ar 1.84526 1.9404 -5.12158
Ar -1.85342 1.93741 -5.29897
Ar -1.75887 -1.66448 -5.4414
Ar 1.95878 -2.14982 -5.24081
38
Atoms. Timestep: 120000
Ar 1.795 1.86066 0.00733541
Ar 5.74449 1.75933 0.209389
Ar 1.70835 5.77558 0.0455443
Ar -2.04172 1.84167 -0.0304851
Ar -5.82668 1.95971 0.0462143
Ar -2.08256 5.64912 -0.0646308
Ar -1.69631 -1.84377 -0.00857386
Ar -5.57756 -1.88408 -0.0415411
Ar -1.59132 -5.79557 0.115157
Ar 1.89019 -1.8921 -0.177004
Ar 5.6614 -1.83456 0.0246294
Ar 2.11882 -5.61363 -0.159729
Ar -0.128003 0.0655768 2.62868
Ar 3.66622 -0.0824485 2.74508
Ar -3.85543 0.103332 2.59517
Ar -0.165301 3.83194 2.73874
Ar 0.203325 -3.77998 2.53899
Ar 3.66289 3.73381 2.78193
Ar -3.83639 3.94818 2.56284
Ar -3.78884 -3.8712 2.58628
Ar 4.00571 -3.85985 2.59877
Ar 0.0793083 -0.0365937 -2.70844
Ar 3.94807 0.122623 -2.69381
Ar -3.7756 -0.0635372 -2.74815
Ar -0.0890394 3.82325 -2.59234
Ar 0.0721212 -3.7887 -2.65924
Ar 3.76515 3.82356 -2.40026
Ar -3.71295 3.74054 -2.84593
Ar -3.77962 -4.09111 -2.42595
Ar 3.97016 -3.72441 -2.6382
Ar 1.65808 1.854 5.27061
Ar -2.11865 2.02471 5.31244
Ar -1.97948 -1.93947 5.08999
Ar 1.84022 -1.83795 5.46134
Ar 1.93362 2.0057 -5.21214
Ar -1.72227 1.9488 -5.50462
Ar -1.85348 -2.14255 -5.14731
Ar 1.90007 -1.78963 -5.30077
38
Atoms. Timestep: 130000
Ar 1.91779 1.93526 -0.038664
Ar 5.78076 1.90075 0.135091
Ar 1.73101 5.63918 0.153741
Ar -1.79935 1.9128 -0.0816356
Ar -5.76274 1.79757 -0.0818678
Ar -2.11138 5.58696 0.0201962
Ar -1.7426 -1.7969 -0.0948905
Ar -5.55448 -1.8065 0.1509
Ar -1.89268 -5.76284 0.04265
Ar 1.86175 -1.93812 0.056134
Ar 5.61604 -1.92537 0.00443984
Ar 2.00749 -5.51174 0.0941525
Ar 0.0157705 -0.0337754 2.60658
Ar 3.75722 0.0699933 2.716
Ar -3.55879 -0.0366972 2.60287
Ar -0.141542 3.63786 2.64506
Ar 0.0144911 -3.76291 2.66189
Ar 3.57187 3.75155 2.67629
Ar -3.85764 3.48087 2.56279
Ar -3.8558 -3.96052 2.60398
Ar 3.56314 -3.73244 2.85778
Ar -0.00317013 0.0416769 -2.64695
Ar 3.80987 0.0773332 -2.51691
Ar -3.81631 -0.114339 -2.91534
Ar -0.0388812 3.64217 -2.67475
Ar 0.014859 -3.81302 -2.71202
Ar 3.88732 3.74136 -2.5933
Ar -3.76802 3.58489 -2.91325
Ar -3.66781 -3.8624 -2.54946
Ar 3.79665 -3.71488 -2.74654
Ar 1.55895 1.88011 5.40528
Ar -2.08469 1.99648 5.45461
Ar -1.7107 -1.76527 5.33505
Ar 1.9852 -1.75055 5.58061
Ar 2.03578 2.32342 -5.49896
Ar -1.84337 1.89268 -5.66193
Ar -1.74118 -1.94048 -5.34571
Ar 2.02719 -1.66318 -5.29389
38
Atoms. Timestep: 140000
Ar 1.85517 2.07352 0.0409858
Ar 5.68323 1.82979 -0.124498
Ar 1.50397 5.79433 0.0673577
Ar -1.79356 1.86032 -0.0114541
Ar -5.49457 1.82103 -0.0562892
Ar -2.20679 5.54361 -0.0925127
Ar -1.86718 -1.82814 -0.0940063
Ar -5.737 -1.76535 -0.149445
Ar -1.68435 -5.44534 -0.0347957
Ar 1.95925 -1.79302 -0.0708552
Ar 5.78915 -1.83645 0.389117
Ar 2.00688 -5.63877 -0.00840344
Ar -0.0320389 -0.0868389 2.67376
Ar 3.73257 0.119819 2.76527
Ar -3.78817 -0.0702875 2.65216
Ar 0.0817102 3.70198 2.81134
Ar -0.0061076 -3.63982 2.74623
Ar 3.88234 3.98851 2.51258
Ar -3.74745 3.64421 2.92317
Ar -3.9575 -3.75431 2.43373
Ar 3.59428 -3.69909 2.76484
Ar -0.0467345 0.0187059 -2.65697
Ar 3.86158 -0.0942442 -2.69007
Ar -3.77396 -0.158079 -2.87141
Ar -0.241258 3.83145 -2.77616
Ar 0.157117 -3.83874 -2.78168
Ar 3.77197 4.03108 -2.43357
Ar -3.92636 3.72813 -2.82549
Ar -3.68789 -3.7947 -2.78178
Ar 4.05956 -3.8424 -2.51683
Ar 2.07511 1.90311 5.42063
Ar -1.6714 1.70859 5.46448
Ar -2.31195 -1.97386 5.28407
Ar 1.70612 -1.82077 5.51387
Ar 1.83433 1.95976 -5.08652
Ar -1.80493 1.72101 -5.50678
Ar -1.7781 -2.24064 -5.49137
Ar 2.00498 -1.95712 -5.40272
38
Atoms. Timestep: 150000
Ar 1.84228 1.95224 0.121299
Ar 5.61074 1.9746 0.0137622
Ar 1.97077 5.69856 0.00684345
Ar -1.91533 1.72376 0.0455449
Ar -5.72069 1.62854 0.0453114
Ar -1.81957 5.75794 0.0392263
Ar -1.88106 -1.97387 -0.0228636
Ar -5.61897 -1.96914 0.0473908
Ar -1.80039 -5.72863 -0.0875066
Ar 1.72139 -1.80689 -0.0437909
Ar 5.58441 -1.74086 0.172395
Ar 2.2103 -5.71 0.0546007
Ar -0.0754404 -0.0318419 2.63925
Ar 3.66039 0.21247 2.8734
Ar -3.85665 -0.147578 2.70974
Ar -0.0898883 3.6675 2.65675
Ar -0.114503 -3.86104 2.73909
Ar 3.82513 4.0237 2.5656
Ar -3.73401 3.84557 2.5081
Ar -3.83952 -4.06832 2.51684
Ar 3.72327 -3.51646 2.96428
Ar 0.0204698 -0.0850825 -2.74696
Ar 3.68467 -0.0197641 -2.72679
Ar -3.78423 -0.145505 -2.76275
Ar 0.206471 3.74423 -2.56168
Ar 0.0994429 -3.83648 -2.78519
Ar 3.99661 3.89417 -2.65717
Ar -3.50994 3.6806 -2.61667
Ar -3.69904 -3.88745 -2.7841
Ar 3.71969 -3.76684 -2.73051
Ar 1.83421 2.15931 5.3922
Ar -2.0382 1.82723 5.26881
Ar -2.07324 -1.95297 5.39008
Ar 1.51562 -1.79903 5.44611
Ar 1.96433 1.98697 -5.30655
Ar -1.74967 1.96464 -5.18399
Ar -1.81241 -1.86264 -5.4802
Ar 1.94458 -1.83064 -5.71992
38
Atoms. Timestep: 160000
Ar 1.94722 1.96246 0.088064
Ar 5.8269 1.9689 0.187457
Ar 1.73645 5.67227 0.036856
Ar -1.81002 1.79578 -0.0292166
Ar -5.76907 2.05987 -0.169753
Ar -2.03524 5.55715 -0.0500143
Ar -1.91279 -1.88942 0.0188543
Ar -6.0547 -1.75552 -0.101993
Ar -1.59734 -5.86067 -0.0609356
Ar 2.02878 -1.78903 0.154481
Ar 5.63251 -1.86018 0.109558
Ar 2.18749 -5.67825 -0.100852
Ar -0.0952564 -0.0265537 2.67863
Ar 3.99562 0.277081 2.85145
Ar -3.75118 -0.0600747 2.56778
Ar 0.0477873 3.83606 2.73297
Ar -0.0702235 -3.83684 2.58377
Ar 3.95177 3.98828 2.55081
Ar -3.74129 3.78944 2.58766
Ar -3.92203 -4.03041 2.43122
Ar 3.70106 -3.69402 2.86082
Ar 0.124895 -0.172769 -2.54416
Ar 3.84498 0.285175 -2.57422
Ar -3.8148 -0.17127 -2.85838
Ar 0.160253 3.68161 -2.65881
Ar -0.0207809 -3.87015 -2.83738
Ar 3.85005 3.88575 -2.30654
Ar -3.64653 3.59388 -2.71553
Ar -3.79309 -3.95565 -2.39933
Ar 3.6749 -3.37322 -2.75022
Ar 1.89225 1.87243 5.25256
Ar -2.14454 1.788 5.36497
Ar -2.06368 -2.03289 5.14865
Ar 1.60265 -1.81771 5.62796
Ar 2.12528 2.2197 -5.42831
Ar -1.51092 1.52502 -5.30126
Ar -2.15719 -2.21702 -5.5137
Ar 1.58181 -1.6662 -5.43391
38
Atoms. Timestep: 170000
Ar 1.8704 2.04913 -0.019016
Ar 5.81371 1.84971 0.0711536
Ar 2.03189 6.02173 0.257598
Ar -1.90131 1.66825 -0.144145
Ar -5.60586 1.82424 -0.17267
Ar -1.94122 5.84031 0.0529379
Ar -1.70339 -2.09345 -0.157183
Ar -5.81 -1.96961 0.051793
Ar -1.64247 -5.99737 0.145628
Ar 1.78803 -1.90779 0.00118555
Ar 5.78498 -2.05794 -0.0458122
Ar 2.15673 -5.638 -0.0501083
Ar -0.142723 -0.192549 2.63992
Ar 3.67885 0.100656 2.443
Ar -3.98532 0.0464297 2.57279
Ar -0.147821 3.74259 2.51902
Ar -0.148155 -3.73895 2.6294
Ar 3.95155 4.06884 2.97191
Ar -4.05781 3.9549 2.29549
Ar -3.84867 -4.11542 2.76962
Ar 3.79561 -3.60907 2.81488
Ar -0.0918767 -0.00152087 -2.73062
Ar 3.91355 0.196528 -2.49461
Ar -3.82263 -0.191864 -2.69359
Ar 0.0535092 3.75736 -2.59418
Ar 0.0656189 -3.86598 -2.81758
Ar 4.01793 3.96996 -2.2852
Ar -3.78153 3.72925 -2.60952
Ar -3.80669 -3.98404 -2.68656
Ar 3.86234 -3.61414 -2.80644
Ar 1.76179 1.81835 5.06651
Ar -2.01422 1.88995 5.14236
Ar -2.05926 -1.86531 5.35169
Ar 1.69261 -1.87478 5.56521
Ar 2.12575 2.00812 -5.21777
Ar -1.75635 1.81907 -5.25345
Ar -1.96065 -1.86596 -5.29325
Ar 1.8651 -1.77064 -5.2904
38
Atoms. Timestep: 180000
Ar 1.76631 1.87009 0.103918
Ar 5.63557 2.08597 0.0487352
Ar 2.05583 5.69758 0.0723156
Ar -1.94036 1.9413 -0.0080921
Ar -5.67038 2.05219 -0.137716
Ar -1.54885 5.66339 -0.000994825
Ar -1.843 -1.90469 0.0198716
Ar -5.74438 -1.90543 -0.360094
Ar -1.93059 -5.80623 -0.0380623
Ar 1.84723 -1.96544 0.240759
Ar 5.682 -1.566 0.167251
Ar 2.48668 -5.91769 0.192736
Ar -0.133108 0.0411198 2.69578
Ar 3.60336 0.188293 2.69969
Ar -3.89142 -0.106925 2.46341
Ar 0.0203151 3.73401 2.88635
Ar -0.110181 -3.99792 2.64223
Ar 3.85654 4.03438 2.80575
Ar -4.23823 3.83052 2.67527
Ar -3.90547 -3.97552 2.62748
Ar 4.19592 -3.97837 2.90707
Ar 0.022071 -0.0567852 -2.60143
Ar 3.81483 0.0858235 -2.58189
Ar -3.98469 0.216231 -2.88537
Ar 0.00178592 3.6847 -2.65619
Ar 0.256514 -4.01932 -2.49487
Ar 3.68506 3.68738 -2.67747
Ar -3.69281 4.02385 -2.74071
Ar -3.56401 -3.80619 -2.78484
Ar 4.2602 -3.83224 -2.64188
Ar 1.67168 1.72097 5.44019
Ar -2.19282 1.83505 5.17508
Ar -1.89622 -2.00173 5.13021
Ar 1.93545 -1.88365 5.09187
Ar 1.43466 1.78488 -5.64638
Ar -2.09104 2.07521 -5.43076
Ar -1.76093 -1.60688 -5.37944
Ar 1.90849 -1.92094 -5.01975
38
Atoms. Timestep: 190000
Ar 1.89455 1.91373 0.0254615
Ar 5.4872 2.21637 -0.0467858
Ar 1.69137 5.63876 -0.110925
Ar -1.86495 1.91981 0.108076
Ar -5.51698 1.97007 -0.0195248
Ar -2.03441 5.62411 0.271206
Ar -1.94017 -1.70458 -0.257204
Ar -5.66544 -2.11727 -0.169457
Ar -2.28705 -5.49558 -0.192351
Ar 1.89701 -1.92146 0.100216
Ar 5.57788 -1.74486 0.205224
Ar 1.73199 -5.6568 -0.00589673
Ar 0.0879764 -0.076748 2.76042
Ar 3.66268 0.273241 2.73804
Ar -3.85194 -0.201446 2.68307
Ar -0.00398176 3.64054 2.62667
Ar -0.0675995 -3.67721 2.68728
Ar 3.76989 4.01395 2.67
Ar -3.87195 3.42294 2.92248
Ar -3.97972 -4.18942 2.89246
Ar 3.59912 -3.92944 2.61884
Ar -0.10562 0.0359183 -2.76375
Ar 3.94948 0.156944 -2.57433
Ar -3.76414 0.0944745 -2.91444
Ar 0.0649875 3.59965 -2.6093
Ar 0.067923 -3.70911 -2.65932
Ar 3.70662 4.04238 -2.76789
Ar -3.59979 3.93564 -2.61648
Ar -3.71269 -3.86531 -3.11991
Ar 3.92538 -3.98183 -2.43291
Ar 1.8893 1.9928 5.28342
Ar -1.84645 1.7508 5.56455
Ar -1.99924 -2.10154 5.5229
Ar 1.98241 -1.66027 5.48279
Ar 1.91007 1.86317 -5.15888
Ar -1.69933 1.73142 -5.87767
Ar -1.47184 -2.00648 -5.58639
Ar 2.38945 -1.79636 -5.2797
38
Atoms. Timestep: 200000
Ar 1.76643 2.05902 -0.0774889
Ar 5.83951 2.09836 0.0623411
Ar 1.9571 5.96245 0.174044
Ar -1.94435 1.83864 -0.042237
Ar -5.79529 1.47983 -0.0851581
Ar -2.16257 5.70551 0.0598063
Ar -1.93131 -2.03034 -0.0929813
Ar -5.61548 -2.53668 -0.444083
Ar -2.53016 -5.52984 -0.00354857
Ar 1.66949 -1.75898 -0.00465923
Ar 5.95998 -1.6023 0.078055
Ar 1.52063 -5.94407 0.0471265
Ar -0.030475 0.211803 2.60732
Ar 3.77297 0.103809 2.51172
Ar -3.81826 -0.0996948 2.65892
Ar 0.0122623 3.94997 2.63862
Ar -0.111173 -3.6172 2.55925
Ar 3.75763 3.86678 2.75895
Ar -3.80656 3.62614 2.62654
Ar -3.95274 -3.67487 2.80372
Ar 3.75025 -3.79533 2.15588
Ar -0.163884 0.0372812 -2.5173
Ar 3.70306 0.0759409 -2.51948
Ar -3.69325 -0.229789 -2.81196
Ar -0.028285 3.86433 -2.62648
Ar 0.143353 -3.75161 -2.62512
Ar 3.6807 3.90026 -2.48203
Ar -3.80736 3.70123 -2.81211
Ar -3.64472 -3.99807 -3.33951
Ar 3.95686 -3.7882 -2.0205
Ar 1.92619 1.60682 5.53905
Ar -1.68863 1.97691 5.35701
Ar -1.667 -1.67627 5.46666
Ar 2.08335 -2.03162 5.13658
Ar 1.9097 1.79356 -5.09752
Ar -1.80612 1.92675 -5.25429
Ar -1.54931 -1.78477 -5.33124
Ar 2.33948 -1.93477 -5.05389
38
Atoms. Timestep: 210000
Ar 1.85759 1.85135 -0.00600883
Ar 5.8044 1.66494 0.190123
Ar 1.57868 6.15111 -0.00900572
Ar -2.13747 1.81076 -0.0019522
Ar -6.05027 2.01332 -0.256605
Ar -2.08243 5.64215 -0.169873
Ar -1.87444 -1.95131 0.164986
Ar -5.74296 -1.88641 -0.160557
Ar -1.73571 -5.90223 0.21454
Ar 1.8986 -1.86566 0.122061
Ar 5.64947 -2.36932 0.0514131
Ar 2.10657 -5.48104 -0.108019
Ar -0.12082 0.0268775 2.60976
Ar 3.80343 0.157695 2.73042
Ar -4.01169 -0.0757947 2.69691
Ar -0.0612805 3.72989 2.53471
Ar 0.130791 -4.12996 2.85504
Ar 3.92728 4.14619 2.28616
Ar -3.95918 3.61641 2.56204
Ar -4.0303 -3.92722 2.58908
Ar 3.77339 -4.00914 2.79867
Ar 0.0347661 -0.0899895 -2.49195
Ar 3.92014 -0.0663977 -2.44263
Ar -3.84871 -0.0114896 -2.68203
Ar -0.0276449 3.8442 -2.61333
Ar 0.14091 -3.76914 -2.77515
Ar 3.80171 3.99892 -2.21896
Ar -3.87857 3.65288 -2.81838
Ar -3.48844 -4.06454 -2.79734
Ar 3.86298 -3.71609 -2.78347
Ar 2.00001 2.29654 5.2254
Ar -1.80192 1.74498 5.50691
Ar -1.99245 -2.145 5.23757
Ar 1.99286 -1.67645 5.18394
Ar 2.16617 2.13776 -5.18543
Ar -1.54819 2.00586 -5.29781
Ar -1.89186 -1.74224 -5.24575
Ar 1.83659 -1.61141 -5.49551
38
Atoms. Timestep: 220000
Ar 1.90478 1.87757 -0.107661
Ar 5.55848 2.14607 0.0896005
Ar 2.04674 6.02747 0.0933669
Ar -2.00655 1.8512 -0.0535118
Ar -5.76856 1.74989 -0.00581176
Ar -1.84108 5.67071 0.107616
Ar -1.85519 -2.02744 -0.090013
Ar -5.77534 -1.98756 -0.0635922
Ar -1.83501 -5.75154 -0.0654718
Ar 1.85519 -1.93358 0.0743237
Ar 5.75734 -1.58707 0.0415615
Ar 2.04818 -5.55946 0.0703576
Ar -0.0286165 -0.0646571 2.43397
Ar 3.66566 -0.0742926 2.57068
Ar -3.84316 0.0643627 2.65448
Ar -0.18182 3.56727 2.58942
Ar -0.0113867 -3.83204 2.71912
Ar 3.64307 3.88875 2.86435
Ar -4.16863 3.91153 2.61249
Ar -3.93287 -3.88846 2.52434
Ar 4.03468 -3.83402 2.70065
Ar 0.113201 -0.111137 -2.7365
Ar 3.8051 -0.0391114 -2.68279
Ar -3.75509 0.0414751 -2.66059
Ar 0.0305784 3.74605 -2.56803
Ar 0.168732 -3.81018 -2.74523
Ar 3.8372 4.01371 -2.7685
Ar -3.90707 3.92017 -2.44984
Ar -3.81845 -3.93817 -2.67859
Ar 3.97317 -3.67534 -2.65433
Ar 1.83623 1.72852 5.25163
Ar -1.94065 2.0656 5.46134
Ar -1.89723 -1.67499 5.30397
Ar 1.82156 -2.11109 5.36986
Ar 1.96193 1.91772 -5.24194
Ar -1.8678 1.73764 -5.34193
Ar -1.82189 -2.04161 -5.27101
Ar 2.19658 -1.98294 -5.34779
38
Atoms. Timestep: 230000
Ar 1.69829 1.85146 0.229757
Ar 5.45805 1.96003 -0.0226693
Ar 2.01471 5.65186 0.223044
Ar -2.01851 1.89485 0.125184
Ar -5.86967 1.63186 -0.406534
Ar -1.92544 5.71699 -0.145921
Ar -1.78965 -1.88798 0.0577455
Ar -5.48428 -2.06976 -0.173162
Ar -1.92133 -5.62424 -0.173622
Ar 1.9594 -1.76096 0.0145889
Ar 5.74082 -1.74227 -0.0694738
Ar 2.07052 -5.60219 -0.111258
Ar -0.031286 0.0410284 2.73877
Ar 3.92285 0.033758 2.63974
Ar -4.02829 0.11553 2.78311
Ar -0.162471 4.13241 2.78028
Ar 0.164153 -3.85279 2.6531
Ar 3.80158 3.68648 2.87873
Ar -4.02214 3.84422 2.47822
Ar -3.62208 -3.70734 2.72431
Ar 3.90351 -3.69156 2.63392
Ar 0.0224866 0.0132017 -2.58227
Ar 3.70524 -0.0117482 -2.55733
Ar -3.63465 -0.106881 -2.78476
Ar -0.0901943 3.70565 -2.61926
Ar -0.00453041 -3.72051 -2.69416
Ar 3.64902 3.53763 -2.59376
Ar -3.73002 3.64416 -2.6891
Ar -3.93704 -3.8536 -3.02127
Ar 3.96193 -3.76963 -2.63181
Ar 1.79444 1.89019 5.33288
Ar -2.08662 2.16633 5.48181
Ar -1.64069 -2.12588 5.49706
Ar 1.95041 -1.87057 5.33206
Ar 1.63875 1.80937 -5.15641
Ar -1.94929 1.82913 -5.32708
Ar -1.66395 -1.78965 -5.47676
Ar 2.15797 -1.96759 -5.36769
38
Atoms. Timestep: 240000
Ar 1.81327 1.90055 0.0227828
Ar 5.66322 1.95894 -0.0320912
Ar 1.85644 5.92758 0.0330457
Ar -1.90247 1.88296 -0.00232644
Ar -5.61492 1.80076 -0.245109
Ar -1.90359 5.6635 -0.0179968
Ar -1.76958 -1.85492 0.0784446
Ar -5.63313 -2.07275 0.0136036
Ar -1.92502 -5.83534 -0.195847
Ar 1.90008 -1.93074 0.0129572
Ar 5.60189 -1.81101 0.0381662
Ar 1.98999 -5.8023 0.0235465
Ar 0.0307774 0.136317 2.7512
Ar 3.83257 0.11671 2.76334
Ar -3.85066 -0.0583763 2.65409
Ar -0.260206 3.83529 2.78151
Ar 0.130696 -3.68859 2.61862
Ar 3.58515 3.89276 2.53455
Ar -4.00067 3.67063 2.59667
Ar -3.82115 -3.97533 2.57656
Ar 3.90468 -3.71328 2.88966
Ar 0.0316108 -0.0558097 -2.73825
Ar 3.73197 0.0439501 -2.53325
Ar -3.63417 -0.18186 -2.81595
Ar -0.0239716 3.91093 -2.54063
Ar -0.0136348 -3.76177 -2.69028
Ar 3.82688 3.8897 -2.63408
Ar -3.79346 3.74744 -2.64777
Ar -3.86861 -3.87642 -2.8212
Ar 3.88787 -3.90528 -2.54463
Ar 1.88147 1.96708 5.39088
Ar -2.03555 1.81906 5.41466
Ar -1.73897 -2.00265 5.45327
Ar 2.00862 -1.72008 5.45266
Ar 1.77887 1.94088 -5.31344
Ar -1.97674 1.92311 -5.36622
Ar -1.73124 -1.91891 -5.69333
Ar 2.04372 -1.86174 -5.26783
38
Atoms. Timestep: 250000
Ar 1.84734 2.00929 -0.0446149
Ar 5.63009 2.01343 0.0889903
Ar 1.91479 5.77202 -0.0345102
Ar -1.872 1.72248 0.0392145
Ar -5.84712 1.9201 0.0462799
Ar -2.02414 5.5103 0.114084
Ar -1.83592 -1.98494 -0.0222213
Ar -5.74993 -1.97707 -0.151957
Ar -1.7239 -5.67387 0.153736
Ar 1.8386 -1.72462 -0.109604
Ar 5.65637 -1.69933 0.11166
Ar 2.03695 -5.62867 0.153471
Ar 0.0325096 -0.0402291 2.60435
Ar 3.77702 0.159334 2.67224
Ar -3.90191 -0.10759 2.63713
Ar -0.152983 3.71279 2.69787
Ar 0.0251805 -3.63937 2.70679
Ar 3.68482 3.84016 2.89199
Ar -3.87319 3.6515 2.62063
Ar -3.91114 -3.74961 2.69539
Ar 3.91376 -3.7083 2.61648
Ar 0.00110132 0.0952592 -2.70902
Ar 3.92038 0.100105 -2.74493
Ar -3.67578 -0.286933 -2.63988
Ar 0.00629932 3.82339 -2.70798
Ar 0.0156583 -3.6782 -2.74875
Ar 3.9163 3.97737 -2.82007
Ar -3.83981 3.51989 -2.53187
Ar -3.87013 -4.00237 -2.67585
Ar 3.9156 -3.74967 -2.54053
Ar 1.80303 1.83917 5.39213
Ar -1.96815 1.82507 5.23647
Ar -1.88292 -1.8768 5.38757
Ar 1.8449 -1.97241 5.29305
Ar 1.95523 1.99825 -5.40987
Ar -1.85415 1.74837 -5.41886
Ar -1.76526 -1.97572 -5.48414
Ar 2.0145 -1.76157 -5.36486
38
Atoms. Timestep: 260000
Ar 1.82006 1.87756 0.00739097
Ar 5.56475 2.07765 0.0702277
Ar 1.78926 5.63655 0.107412
Ar -1.9142 1.74791 0.0350112
Ar -5.6105 1.78896 0.0318357
Ar -1.8718 5.62614 0.0509901
Ar -1.93686 -1.94188 -0.0420007
Ar -5.55784 -2.01028 -0.0294704
Ar -1.78324 -5.82249 -0.0828826
Ar 1.89111 -1.86618 -0.0336149
Ar 5.5977 -1.82078 0.014202
Ar 2.04427 -5.63596 -0.0121934
Ar 0.0512343 -0.012302 2.69182
Ar 3.84527 0.101392 2.75478
Ar -3.75817 -0.086262 2.62482
Ar -0.164726 3.79772 2.69996
Ar -0.0159647 -3.65625 2.54635
Ar 3.73347 3.80428 2.69126
Ar -3.89803 3.76989 2.71834
Ar -3.7328 -3.81094 2.77319
Ar 3.75375 -3.67116 2.76784