38
Atoms. Timestep: 0
Ar 1.668 1.873 0
Ar 5.651 1.903 0.003
Ar 1.878 5.656 -0.01
Ar -1.867 1.863 -0.007
Ar -5.65 1.873 -0.014
Ar -1.898 5.645 -0.014
Ar -1.857 -1.873 0
Ar -5.64 -1.903 -0.003
Ar -1.867 -5.656 0.01
Ar 1.878 -1.863 0.007
Ar 5.661 -1.873 0.014
Ar 1.909 -5.645 0.014
Ar 0.002 0.007 2.642
Ar 3.751 0.017 2.659
Ar -3.75 -0.003 2.646
Ar -0.008 3.756 2.646
Ar 0.012 -3.745 2.659
Ar 3.761 3.786 2.656
Ar -3.778 3.766 2.646
Ar -3.757 -3.773 2.663
Ar 3.781 -3.752 2.673
Ar 0.009 -0.007 -2.642
Ar 3.761 0.003 -2.646
Ar -3.74 -0.017 -2.659
Ar -0.002 3.746 -2.659
Ar 0.019 -3.756 -2.646
Ar 3.768 3.773 -2.663
Ar -3.771 3.752 -2.673
Ar -3.75 -3.786 -2.656
Ar 3.788 -3.766 -2.646
Ar 1.871 1.897 5.329
Ar -1.888 1.886 5.325
Ar -1.878 -1.873 5.332
Ar 1.881 -1.863 5.339
Ar 1.888 1.873 -5.332
Ar -1.871 1.863 -5.339
Ar -1.861 -1.897 -5.329
Ar 1.898 -1.886 -5.325
38
Atoms. Timestep: 10000
Ar 1.22483 2.84356 0.537794
Ar 6.12175 2.99591 -0.782148
Ar 3.05237 6.07604 0.0338877
Ar -3.12581 0.194396 1.22551
Ar -6.61006 1.50057 0.0648083
Ar -0.608582 6.08354 0.353179
Ar -1.83436 -2.84908 -0.739918
Ar -5.43621 -2.51364 0.139898
Ar -3.15889 -6.02903 0.0662164
Ar 1.94255 -2.42994 -0.880943
Ar 4.27159 -4.54049 1.3422
Ar 3.51561 -5.58354 -2.74637
Ar 0.305064 -0.601553 1.8517
Ar 4.09217 0.15743 1.36146
Ar -5.95636 -0.56239 3.24466
Ar 1.68791 5.27149 3.71308
Ar 0.321677 -4.58275 1.62109
Ar 5.0887 3.83497 2.63157
Ar -4.6431 3.56608 2.31309
Ar -2.60608 -3.04621 3.11589
Ar 2.93424 -2.31886 4.22099
Ar -0.631629 0.332249 -1.73947
Ar 3.2945 0.916283 -2.25129
Ar -4.16933 -0.539901 -2.61443
Ar 0.718043 4.10621 -2.80185
Ar -0.0697506 -5.37219 -2.52665
Ar 4.11604 4.05464 -4.18057
Ar -2.53398 3.28765 -0.834607
Ar -3.913 -4.17118 -3.24128
Ar 5.45457 -2.20302 -2.37443
Ar 1.9836 1.31455 4.73493
Ar -1.09714 2.5189 3.16809
Ar -3.16886 0.302806 5.31213
Ar -0.321182 -2.0859 6.1726
Ar 1.77272 1.46351 -5.81534
Ar -2.46262 2.37863 -4.36668
Ar -1.65103 -1.62504 -4.89594
Ar 2.10203 -2.14371 -4.43285
38
Atoms. Timestep: 20000
Ar 0.987533 2.89114 0.411749
Ar 4.21304 3.9584 1.58688
Ar 4.25349 4.60703 -1.94957
Ar -2.90716 0.536698 0.75662
Ar -5.22587 3.27785 -0.390125
Ar 1.7177 6.5792 -0.44919
Ar -1.62402 -2.7004 -0.767295
Ar -5.22489 -3.20287 0.0486933
Ar -2.51195 -6.33563 0.293577
Ar 1.95256 -2.44438 -1.5061
Ar 4.53065 -3.959 0.396403
Ar 4.22817 -4.51791 -3.62495
Ar 0.866173 -0.814411 1.50125
Ar 4.54683 -0.283801 1.1045
Ar -6.06416 -0.366897 2.33438
Ar 0.795599 5.24916 3.51376
Ar 0.87451 -4.55525 1.54202
Ar 2.58708 1.26495 3.80026
Ar -4.44274 3.13404 3.37392
Ar -2.59128 -2.62451 2.85475
Ar 3.59752 -2.37336 3.88973
Ar -0.194752 0.529252 -1.99611
Ar 3.23264 1.20457 -2.75328
Ar -6.77268 -0.0115015 -1.17718
Ar 0.738225 4.46165 -3.07791
Ar -0.0306049 -5.59755 -2.42126
Ar 4.18465 2.55018 -5.87142
Ar -1.85164 5.33066 0.714006
Ar -3.60757 -4.45091 -3.5339
Ar 6.27022 -1.63259 -1.86021
Ar 1.24595 2.86505 6.84547
Ar -1.22552 1.53086 3.93711
Ar -4.29152 -0.386329 5.5709
Ar 0.215275 -1.61285 5.14358
Ar -0.22109 1.34089 -5.55509
Ar -3.57585 0.0789176 -2.79504
Ar -1.12775 -1.97173 -4.46323
Ar 2.45523 -1.54762 -5.42769
38
Atoms. Timestep: 30000
Ar 1.80741 1.51224 1.16203
Ar 6.10934 3.39758 1.1447
Ar 5.434 5.88427 -2.86219
Ar -3.70332 0.184779 0.578331
Ar -3.37208 2.61664 -2.53709
Ar 3.28328 5.75664 0.305043
Ar -1.94098 -3.10673 -0.586433
Ar -5.87123 -2.55743 -0.616403
Ar -1.80836 -6.45982 0.8514
Ar 1.76403 -1.98297 -0.0426635
Ar 7.04697 -3.5948 -3.14889
Ar 3.04933 -3.77389 -3.03274
Ar -0.803864 -0.917328 2.27995
Ar 5.34052 0.0466402 2.83851
Ar -7.00169 -0.90414 2.75816
Ar 3.49575 4.06326 3.74024
Ar 0.625253 -4.35027 2.48536
Ar 2.14678 -1.02508 4.14934
Ar -5.09971 3.26965 1.67483
Ar -4.12416 -3.01405 2.90035
Ar 4.26551 -3.81546 2.42131
Ar -0.657925 0.151805 -1.43742
Ar 3.60737 2.80719 -1.74768
Ar -7.28254 0.971389 -1.06127
Ar 0.163818 3.62891 -2.12934
Ar -0.128045 -6.1099 -2.36054
Ar 2.50822 3.82179 -5.38832
Ar -1.50724 3.12009 1.01502
Ar -3.40471 -4.76228 -3.32444
Ar 5.23021 -0.472694 -1.32662
Ar -1.25196 5.68442 3.64527
Ar -0.186095 2.16775 4.5101
Ar -3.57016 0.904646 4.01642
Ar -1.01379 -1.9594 5.64979
Ar -0.852822 1.99425 -5.05756
Ar -3.86137 -0.801185 -3.15176
Ar -0.64009 -2.22723 -4.37698
Ar 2.20635 -0.148282 -3.93781
38
Atoms. Timestep: 40000
Ar 2.70099 1.41445 0.400585
Ar -1.13787 5.70358 0.811
Ar 6.34111 5.66664 -4.57019
Ar -2.99 -0.792992 0.309191
Ar -3.72259 1.88863 -2.37929
Ar 1.61545 6.80305 -2.10863
Ar -1.70539 -3.99841 -0.638191
Ar -5.1619 -3.58367 -0.919563
Ar -5.38215 -6.10798 1.75693
Ar 2.29328 -2.6381 -0.580813
Ar 5.3988 2.12382 -5.43521
Ar 0.941098 -5.73978 -2.40126
Ar -0.0393062 -1.04301 2.01777
Ar 6.52777 -1.21232 0.783193
Ar -8.78468 -3.38033 0.891442
Ar 3.58029 5.07612 2.13728
Ar -2.62557 -3.51878 2.77581
Ar 1.65949 -4.48644 3.66782
Ar -4.99155 1.96952 2.57771
Ar -5.66684 -1.53518 3.05341
Ar -0.464944 -6.86351 1.75103
Ar -0.123651 -0.287163 -1.86029
Ar 5.99874 2.76765 0.473749
Ar -6.64522 -0.0812667 -0.695286
Ar -0.555858 3.71503 -2.4603
Ar -3.03744 -7.45877 -0.841133
Ar 3.28628 3.40425 -2.67219
Ar -0.887451 2.31357 1.13539
Ar -2.49345 -4.82571 -4.06709
Ar 4.75433 -4.26531 1.46806
Ar 1.46595 2.68689 3.97679
Ar 3.66011 -0.74794 3.06365
Ar -2.19808 0.624205 4.48058
Ar 1.4194 -0.726236 5.86352
Ar 0.557383 1.34866 -4.97952
Ar -3.76418 -1.40719 -4.12672
Ar 2.2536 -2.70389 -4.18998
Ar 5.11624 0.0856248 -2.18141
38
Atoms. Timestep: 50000
Ar 2.00711 0.634098 -1.66891
Ar -1.2827 5.36365 -1.05431
Ar 6.67996 4.91638 -0.671046
Ar -3.5779 -1.55717 -0.0954528
Ar -5.24971 0.178739 -2.73218
Ar 1.88175 4.85306 -4.88742
Ar -0.921211 -4.11991 -1.28771
Ar -5.17179 -5.79502 0.697329
Ar -3.32973 -7.3405 4.27364
Ar 2.63018 -2.90548 -2.59486
Ar 8.39238 1.47301 -1.87043
Ar -2.66902 -7.87932 -2.71219
Ar 0.170774 -1.78841 1.03855
Ar 4.27819 -1.74968 2.06821
Ar -6.12837 -5.14585 5.97064
Ar 2.66536 4.37414 -0.626566
Ar -2.34697 -4.38934 2.29379
Ar 1.8639 -6.41351 -0.896767
Ar -6.17071 0.855988 1.09855
Ar -5.14473 -2.21734 3.33254
Ar -0.540517 -7.88272 1.66367
Ar -1.0619 -0.789023 -2.88693
Ar 5.23984 1.39722 0.30344
Ar -7.50117 -2.31626 -0.822501
Ar -1.11794 2.66536 -3.82512
Ar -3.64748 -9.12379 1.09142
Ar 4.8894 1.97602 -3.42172
Ar -1.94244 1.77046 -0.223453
Ar 0.741858 -6.37139 -4.51478
Ar 4.82861 -5.09191 1.13669
Ar 1.68274 1.61001 2.262
Ar 1.60555 -4.08834 3.3151
Ar -1.70789 -0.0115661 3.22686
Ar -2.80174 -3.63899 6.13079
Ar 2.09882 0.868369 -5.45418
Ar -4.46083 -4.32616 -2.85344
Ar -0.0216064 -2.92666 -5.7601
Ar 5.70497 -1.61288 -1.51083
38
Atoms. Timestep: 60000
Ar 1.7569 0.285555 -0.572179
Ar -0.334905 3.92671 1.03925
Ar 5.44611 -1.08534 -5.40171
Ar -3.38093 -2.93945 -0.320085
Ar -3.765 -0.636548 -3.12024
Ar 6.05439 4.47112 -1.3137
Ar -0.878185 -5.40112 -1.97943
Ar -4.53672 -6.92871 -2.1744
Ar -6.39958 -8.35465 1.29121
Ar 2.64349 -6.33567 -2.74043
Ar 5.26897 0.91739 -1.69573
Ar -2.79975 -7.82605 0.936195
Ar 0.133526 -3.01262 0.82934
Ar 4.23175 -1.14717 1.59914
Ar -4.55276 -7.2416 4.86824
Ar 2.71713 3.56163 -1.87487
Ar -2.41459 -4.8448 2.99128
Ar 3.93875 -8.69991 0.00904387
Ar -5.43387 -1.09297 1.88546
Ar -6.10425 -4.69315 2.27211
Ar 0.584412 -6.99523 1.60974
Ar -0.537839 -2.22146 -2.82373
Ar 3.38054 2.68401 1.64674
Ar -6.7778 -4.42138 -1.38152
Ar -0.571034 1.92851 -3.12589
Ar -7.85165 -8.74472 -3.33146
Ar 2.16657 -0.0965177 -4.59172
Ar -2.0862 0.322917 0.244433
Ar -0.32029 -9.05766 -1.84307
Ar 7.18429 -2.48012 -1.59313
Ar 1.16479 0.0889726 3.07869
Ar 3.72686 -4.93185 1.73086
Ar -2.50241 -1.08591 4.07166
Ar 1.05939 -3.83372 4.21794
Ar -1.43378 -0.624336 -6.45769
Ar -3.76717 -4.36994 -4.44785
Ar 0.227311 -5.85314 -5.54721
Ar 3.52496 -2.5698 -1.77197
38
Atoms. Timestep: 70000
Ar 1.10525 -0.285608 -1.59934
Ar 0.392652 3.89502 -0.0816071
Ar 5.92286 -6.04788 -3.79633
Ar -2.5706 -2.62477 -0.998307
Ar -6.84964 -3.2982 -1.16694
Ar 6.10631 0.463152 1.54907
Ar -1.92399 -6.29322 -1.75049
Ar -4.19302 -9.58234 -1.72447
Ar -5.69161 -9.57624 1.69934
Ar 1.69491 -6.67766 -3.24977
Ar 4.79539 0.695666 -1.92877
Ar -1.78745 -8.4552 1.08408
Ar 1.02488 -3.7993 -0.306236
Ar 3.57408 -1.84081 1.03003
Ar -3.95527 -7.03526 3.72899
Ar 2.16364 3.02445 -3.04819
Ar -1.59607 -4.7676 1.82277
Ar 3.78631 -9.57089 -2.17647
Ar -6.28766 0.414018 0.0371748
Ar -5.07357 -2.90022 2.22263
Ar 1.76793 -7.43104 0.4549
Ar -0.285836 -3.50585 -3.7176
Ar 2.53065 1.26799 2.5175
Ar -4.87257 -6.23853 0.283652
Ar -1.63983 -0.0147067 -4.16952
Ar -5.41826 -6.95198 -4.33374
Ar 2.03395 0.0229211 -5.31931
Ar -2.22328 1.07351 0.589924
Ar -0.626611 -9.8025 -2.40656
Ar 7.32696 -2.9179 -0.830284
Ar -0.0924139 -1.22456 2.34042
Ar 4.97606 -5.45752 -0.154862
Ar -2.28541 -2.33825 4.83914
Ar 2.1059 -4.14926 3.76955
Ar -3.81206 -3.68455 -4.69126
Ar -1.69044 -6.70604 -5.37386
Ar 1.98892 -4.44132 -6.50114
Ar 3.82027 -3.11936 -3.16814
38
Atoms. Timestep: 80000
Ar 0.667191 -0.402759 -1.91759
Ar 1.59196 1.93301 0.741922
Ar 5.50864 -6.63125 -4.13398
Ar -1.7229 -3.03441 -1.20493
Ar -4.13162 -3.61925 -3.74622
Ar 6.9431 -0.899187 1.68247
Ar -1.57915 -6.56227 -2.14217
Ar -2.18305 -9.69057 -4.21126
Ar -7.36058 -5.27907 2.7892
Ar 1.7943 -7.40524 -3.17581
Ar 5.10381 -0.150667 -3.7537
Ar -2.35148 -8.74849 0.72295
Ar 1.36441 -4.51539 -1.07128
Ar 3.76681 -1.7682 -0.17027
Ar -4.01072 -6.71539 3.63742
Ar 0.591214 3.21438 -2.67808
Ar -0.962679 -5.31881 1.63935
Ar 4.72771 -9.63088 -2.03202
Ar -5.2575 -1.1803 -1.23412
Ar -3.37528 -1.97447 2.39323
Ar 1.88998 -7.98347 0.552037
Ar -0.548341 -3.42103 -4.62771
Ar 3.75936 -1.96935 3.83274
Ar -5.12111 -4.45442 0.0709051
Ar -2.38922 -0.0443571 -4.29892
Ar -5.02945 -7.63632 -1.66433
Ar 1.87411 -0.0905371 -5.47612
Ar -2.23273 0.739337 -0.0551511
Ar 0.901787 -10.8857 -2.10052
Ar 7.03402 -3.4613 -1.55801
Ar 0.27346 -1.59852 1.62516
Ar 4.64884 -5.86596 -0.469594
Ar -0.739069 -3.47881 4.9037
Ar 2.60094 -5.36025 3.04104
Ar -4.26999 -6.65486 -5.38561
Ar -0.795933 -6.97388 -6.30712
Ar 2.71802 -6.06044 -6.64935
Ar 3.36082 -3.28091 -3.54571
38
Atoms. Timestep: 90000
Ar 1.12396 -1.41612 -1.34471
Ar 5.92192 0.162606 2.53149
Ar 5.81088 -4.32572 -5.98696
Ar -1.86078 -3.2624 -0.897906
Ar -3.91015 -4.8197 -3.7335
Ar 4.13564 -6.17438 2.08068
Ar -1.46249 -6.89908 -1.53482
Ar -1.10042 -10.6921 -2.45855
Ar -3.80962 -2.62345 2.11299
Ar 2.5374 -6.49357 -5.21707
Ar 4.50805 -0.1115 -2.12704
Ar -2.25092 -8.3445 1.65046
Ar 1.53414 -4.96711 -0.543473
Ar 4.62236 -2.97741 0.214074
Ar -4.01608 -6.02474 3.92642
Ar 2.88829 3.29888 -2.50563
Ar -0.95628 -4.80413 2.3397
Ar 5.67844 -8.94103 -3.44772
Ar -5.73053 -2.36315 -1.24903
Ar -1.3908 0.106203 3.0296
Ar 1.40447 -8.4098 1.30959
Ar -0.204631 -4.04548 -4.10659
Ar 4.67702 -2.83621 4.66631
Ar -4.55423 -5.47539 0.180484
Ar -2.18561 -0.711083 -4.06379
Ar -4.75415 -8.38584 -1.99868
Ar 1.84993 0.114053 -4.77231
Ar -2.43982 0.275651 -0.388511
Ar 2.33127 -8.66758 -2.46817
Ar 7.08832 -3.46121 -2.87746
Ar 1.9364 1.32964 0.861979
Ar 5.29891 -6.19107 -1.29319
Ar -1.53784 -2.93716 5.47189
Ar 1.50763 -1.89199 2.3707
Ar -4.61076 -6.62969 -7.04508
Ar -1.36191 -7.50351 -5.36969
Ar 1.71548 -3.11433 -7.15072
Ar 3.38567 -3.55033 -3.40157
38
Atoms. Timestep: 100000
Ar 1.8154 -0.217562 -0.775234
Ar 7.65663 1.22849 2.01514
Ar 5.40805 -2.53339 -5.74486
Ar -1.54059 -2.32544 0.1532
Ar -3.89638 -3.53312 -2.90202
Ar 3.54394 -4.85077 3.3765
Ar -0.867033 -6.05997 -0.924604
Ar -0.815142 -9.31583 -2.98597
Ar -2.66794 -0.894014 3.33237
Ar 1.29632 -8.25255 -6.14416
Ar 5.44517 0.288763 -1.76269
Ar -2.28715 -7.95773 2.10846
Ar 1.87461 -3.75268 0.384443
Ar 5.17231 -2.16909 1.0671
Ar -3.73901 -4.63775 4.85545
Ar 1.55726 4.18789 -1.79955
Ar -0.652898 -4.72031 2.66318
Ar 5.56663 -5.9912 -4.09546
Ar -4.31055 -0.187076 -0.87521
Ar -0.510092 0.180542 5.80727
Ar 1.34745 -7.81801 1.13065
Ar 0.0646887 -3.44208 -2.93061
Ar 3.39493 -0.93479 5.67653
Ar -3.87952 -4.98458 0.653185
Ar -1.0534 0.655258 -2.76084
Ar -3.98689 -7.84788 -1.66486
Ar 1.22389 -0.788007 -5.65019
Ar -0.84148 1.68168 1.2632
Ar 2.17969 -6.78336 -2.69705
Ar 7.54236 -3.57148 -1.96871
Ar 3.99053 0.946826 2.37205
Ar 4.74895 -5.75472 -0.441912
Ar 0.168618 -3.43327 6.08147
Ar 0.907896 -1.22638 2.74833
Ar -2.33119 -2.44832 -6.05567
Ar -2.3025 -6.31456 -4.71884
Ar 2.2605 -4.47224 -5.88356
Ar 4.02945 -2.94825 -2.51073
38
Atoms. Timestep: 110000
Ar 2.05437 0.0788759 -0.169178
Ar 7.65855 1.59084 3.40203
Ar 5.72028 -1.98073 -5.65723
Ar -1.32232 -1.52739 1.09642
Ar -3.756 -2.74827 -2.28559
Ar 3.55161 -4.30322 4.01429
Ar -1.58075 -4.99186 -0.0384788
Ar -0.990646 -8.62358 -0.935147
Ar -2.19422 -1.2394 4.67568
Ar 2.69199 -5.47635 -5.42703
Ar 4.85132 0.850601 -3.13028
Ar -3.16543 -7.44515 2.31379
Ar 1.81957 -3.41307 0.703903
Ar 4.96677 -1.67202 1.48198
Ar -3.61754 -5.34234 5.25751
Ar 5.38889 1.77046 0.457602
Ar -0.507641 -4.6107 3.36402
Ar 6.68672 -4.98504 -3.64972
Ar 2.27084 3.6292 -0.862284
Ar -0.0941817 1.66539 5.6382
Ar 1.29546 -7.06313 1.38984
Ar 0.0537669 -2.13166 -2.23059
Ar 5.15005 -0.672575 5.04463
Ar -4.48941 -3.59295 1.43105
Ar -1.85526 0.998323 -1.51818
Ar -4.22574 -6.91622 -1.93169
Ar 1.2209 1.07398 -3.81437
Ar -0.161596 2.23394 1.90463
Ar 1.35819 -6.00111 -2.03505
Ar 7.27223 -2.07058 -1.76515
Ar 3.54027 2.21082 3.49332
Ar 5.0532 -5.12615 -0.303735
Ar 0.257282 -3.12401 6.77597
Ar 1.66376 -0.958921 3.57866
Ar -1.79237 -0.466761 -5.08901
Ar -1.31358 -4.75068 -4.43068
Ar 1.27327 -2.29502 -5.53236
Ar 3.67635 -2.71522 -2.56892
38
Atoms. Timestep: 120000
Ar 2.40887 0.919696 -0.0087432
Ar 7.73417 -2.65699 2.85634
Ar 5.75223 -1.07852 -4.56824
Ar -1.23719 -0.701704 1.39813
Ar -3.83464 -1.5399 -1.23461
Ar 3.66487 -3.75743 4.44227
Ar -1.25573 -4.41574 0.0227069
Ar -0.638477 -7.68025 -1.0866
Ar -1.898 -0.823974 5.37071
Ar 2.31428 -2.83137 -4.71383
Ar 5.59603 1.53229 -1.48109
Ar -2.34108 -7.07655 2.20396
Ar 1.73672 -3.00681 1.10888
Ar 4.77612 -1.11534 1.67699
Ar -1.87646 -4.56046 7.23676
Ar 7.23681 1.6465 2.35388
Ar -0.743144 -3.99543 3.67766
Ar 5.46862 -5.06867 -4.48599
Ar 1.96428 4.357 -0.930875
Ar 0.521022 1.94564 6.22934
Ar 1.51235 -6.70093 1.81373
Ar 0.208151 -1.6351 -1.82496
Ar 4.90915 -0.339163 5.24418
Ar -4.26327 -3.3649 2.26175
Ar -0.784453 1.81697 -1.75182
Ar -4.51438 -5.0861 -1.24988
Ar -0.597824 3.07562 -5.11968
Ar 0.0947049 2.79496 2.33868
Ar 2.17291 -5.4 -2.15243
Ar 7.75192 -2.29862 -0.781459
Ar 3.7687 2.88885 2.63625
Ar 5.20972 -4.88258 1.00501
Ar 1.53397 -1.82306 6.92289
Ar 1.63902 -0.471464 3.65696
Ar -1.20389 -0.574293 -4.78549
Ar -1.6192 -4.40047 -4.08281
Ar 2.49679 0.877994 -3.67697
Ar 4.14565 -2.21896 -1.65104
38
Atoms. Timestep: 130000
Ar 1.90216 1.49068 0.307465
Ar 8.06 -3.12472 2.71481
Ar 6.38008 -0.0371197 -4.02596
Ar -1.22638 -0.958871 2.16661
Ar -3.52711 -1.7564 -1.6524
Ar 3.78306 -3.27652 4.39608
Ar -1.28744 -3.80604 0.174412
Ar -0.858372 -7.46126 -1.35016
Ar -1.23036 -0.0795387 5.81432
Ar 1.72782 -2.53592 -5.06625
Ar 5.53083 1.81886 -0.718041
Ar -1.99168 -5.59387 3.03672
Ar 1.9292 -2.42422 1.10319
Ar 4.98854 -0.750953 1.71096
Ar -3.27562 -2.98604 5.8605
Ar 8.08646 0.65753 2.65147
Ar 0.267571 -3.20498 4.62254
Ar 5.80581 -4.08143 -3.51419
Ar 3.49358 4.95404 -0.341562
Ar 2.58147 2.88533 6.19588
Ar 1.46737 -5.92002 1.60254
Ar 0.331945 -1.13415 -2.03619
Ar 5.07673 -0.115816 6.04488
Ar -4.30829 -2.86675 1.82918
Ar -1.56412 1.57091 -0.350426
Ar -4.16459 -5.98324 -0.127105
Ar 0.280976 4.297 -2.33317
Ar -0.273191 3.07554 3.55924
Ar 2.02517 -4.77912 -1.88571
Ar 7.58689 -1.84512 -0.852926
Ar 4.75944 2.64821 3.21457
Ar 5.07554 -4.4548 0.427836
Ar 2.02463 -0.676319 7.82109
Ar 2.03264 0.190662 3.98196
Ar -1.05974 1.27765 -4.24327
Ar -1.62069 -4.35582 -3.46301
Ar 2.60542 1.51425 -3.55501
Ar 4.04931 -1.50278 -1.63911
38
Atoms. Timestep: 140000
Ar 2.5297 1.77212 1.18313
Ar 8.07648 -3.20953 2.21097
Ar 5.76225 1.21113 -3.67305
Ar -0.604443 0.0487503 2.82308
Ar -3.25997 0.67918 0.544734
Ar 4.46778 -3.15814 4.31472
Ar -1.6339 -3.41748 0.766641
Ar -0.275272 -6.80094 0.192249
Ar -0.223168 0.681699 6.73974
Ar 1.75769 -0.600185 -4.1023
Ar 5.88421 2.50041 0.0582242
Ar -1.83689 -5.99734 3.94049
Ar 2.03189 -2.28125 1.50864
Ar 5.37435 -0.518169 2.16569
Ar -3.39491 -2.05742 3.80487
Ar 8.52058 1.06581 2.76103
Ar 0.245894 -2.8258 4.98643
Ar 4.92738 -3.63385 -3.04849
Ar 3.12232 5.14882 1.06014
Ar 3.30583 2.03688 7.66407
Ar 1.94511 -5.65201 3.00283
Ar 0.0604136 -0.222773 -0.784302
Ar 6.06049 0.212857 6.13392
Ar -5.02843 -2.72828 -0.243287
Ar -0.742617 3.45556 0.34371
Ar -3.30666 -6.05739 -1.88241
Ar 2.77025 2.79444 -5.71647
Ar 0.836383 3.41613 3.95342
Ar 1.06213 -3.95772 -1.52862
Ar 7.7321 -0.93071 -0.582894
Ar 4.86818 2.86706 3.66918
Ar 4.925 -4.20248 0.555048
Ar 2.98829 -1.80854 7.39384
Ar 2.52346 0.049257 4.47301
Ar -1.84945 2.17399 -2.90295
Ar -1.95523 -2.40106 -2.76051
Ar 1.89006 2.70593 -2.05324
Ar 3.87596 -0.624575 -1.13935
38
Atoms. Timestep: 150000
Ar 2.78616 2.01898 2.00371
Ar 8.48051 -2.9285 2.01093
Ar 5.33181 1.73271 -4.07197
Ar -0.493335 0.967723 2.98469
Ar -3.10794 0.985202 0.528853
Ar 4.23213 -3.74548 4.25512
Ar -1.28735 -2.29842 1.42573
Ar 0.919585 -5.22102 1.8764
Ar -0.417016 1.10507 6.68414
Ar 1.64403 0.32589 -3.93992
Ar 6.18957 2.59759 0.517097
Ar -2.34333 -4.76285 3.91366
Ar 2.21673 -1.6532 1.61851
Ar 5.43591 -0.323805 2.36991
Ar -3.55813 -0.878815 4.11576
Ar 8.98399 1.12686 2.42555
Ar -0.00811348 -2.22558 4.89571
Ar 5.56976 -2.095 -3.78368
Ar 3.94531 5.35421 2.2432
Ar 3.63634 2.36113 8.20234
Ar 1.05601 -6.04432 5.32842
Ar 0.305013 0.686196 -0.545846
Ar 6.69265 -0.747875 5.81563
Ar -4.90682 -2.0556 0.734846
Ar -0.510296 3.89979 0.811151
Ar -2.22558 -5.25344 -0.534277
Ar 1.96205 3.47357 -5.66175
Ar 1.54171 3.76421 4.77951
Ar 1.54436 -3.08541 -1.50979
Ar 7.74154 -0.626337 -0.730906
Ar 5.74158 2.69938 4.67026
Ar 5.1178 -3.35935 0.442866
Ar 2.66039 -2.80763 7.30404
Ar 3.24043 0.203214 5.28015
Ar -1.76144 2.552 -2.97375
Ar -2.14774 -1.7216 -2.19092
Ar 2.5833 3.53408 -1.8016
Ar 3.98356 -0.251966 -0.992211
38
Atoms. Timestep: 160000
Ar 3.56297 2.50946 1.89553
Ar 7.58052 -3.37336 2.10849
Ar 5.62241 3.84181 -0.818371
Ar 0.020296 1.54927 3.77052
Ar -2.86644 1.70628 1.81023
Ar 4.10088 -3.10339 4.046
Ar -1.21242 -1.58788 1.64351
Ar 1.34684 -4.63856 1.58222
Ar 0.600745 1.80647 7.52985
Ar 0.869732 1.17316 -3.42718
Ar 8.80892 2.85125 1.63631
Ar -1.9688 -4.6928 3.7647
Ar 2.23152 -1.05546 2.03744
Ar 5.91943 -0.215226 2.33755
Ar -3.95998 -0.914752 4.34217
Ar 9.06893 1.73992 5.65903
Ar 0.396349 -1.53725 5.43247
Ar 3.53517 -1.68993 -3.9281
Ar 4.10542 6.29898 1.79208
Ar 5.79341 1.48698 7.62999
Ar 1.57334 -5.08654 5.91851
Ar 0.248523 1.39321 0.159563
Ar 7.12744 -1.30306 5.54946
Ar -4.92127 -2.61249 0.794908
Ar -0.0390962 5.02678 1.85328
Ar -1.89741 -4.23449 -0.950521
Ar 4.36104 2.41805 -4.44169
Ar 2.12508 4.71374 4.7345
Ar 1.13172 -2.22209 -1.2618
Ar 7.30977 -0.0637902 -1.01132
Ar 5.9878 3.41348 4.23492
Ar 4.47158 -3.16751 -0.0780634
Ar 3.34939 -1.36528 8.17307
Ar 3.40034 0.880596 5.03014
Ar -1.39902 3.8251 -1.97463
Ar -2.65689 -0.394642 -1.63323
Ar 2.12819 4.29446 -1.45925
Ar 3.63812 0.494069 -0.934192
38
Atoms. Timestep: 170000
Ar 2.75547 3.21408 2.08091
Ar 7.61249 -2.36389 1.57489
Ar 5.90607 3.88676 0.183108
Ar -0.0827894 2.00055 4.1487
Ar -3.39446 2.7 2.12951
Ar 4.17615 -2.66122 3.63771
Ar -1.60906 -0.79769 2.01446
Ar 0.86612 -3.9926 1.67149
Ar 1.2726 1.92613 7.86101
Ar 0.424844 1.65497 -3.28881
Ar 9.09179 1.24168 2.6523
Ar -2.30319 -4.10226 3.31189
Ar 1.97797 -0.419072 1.92677
Ar 5.49542 0.559673 1.74785
Ar -3.22293 0.221344 5.36027
Ar 8.67291 2.57813 6.515
Ar 0.175564 -1.61905 5.00098
Ar 3.57527 -1.22106 -4.17759
Ar 3.16693 6.87203 2.13313
Ar 5.56556 1.53148 7.98145
Ar 1.1552 -5.18818 5.40381
Ar -0.0666631 2.13784 0.185144
Ar 6.96437 -0.915727 4.99953
Ar -5.13083 -1.16448 2.27988
Ar -0.202602 5.36383 2.46751
Ar -2.92774 -3.29249 -0.42722
Ar 4.56562 2.83987 -4.09143
Ar 2.23549 4.71854 5.53338
Ar 0.594156 -1.51718 -1.28099
Ar 7.07804 -0.0719236 -1.71824
Ar 5.82761 3.31493 4.15624
Ar 4.37276 -2.46841 -0.0965702
Ar 3.41105 -1.7477 7.8128
Ar 3.3275 0.644278 5.02621
Ar -1.32674 4.91593 -1.69467
Ar -2.71555 0.54562 -1.40134
Ar 2.52066 4.81921 -1.25993
Ar 3.47436 1.03999 -1.11312
38
Atoms. Timestep: 180000
Ar 2.65022 3.42727 2.62207
Ar 7.93631 -1.57004 1.12644
Ar 5.5072 4.39032 0.617457
Ar -0.380487 2.19841 3.96991
Ar -3.32534 3.0528 1.85187
Ar 3.51467 -2.91568 3.68334
Ar -2.1431 -0.165982 2.11292
Ar 0.462503 -3.72687 1.55115
Ar 0.027326 1.40385 7.50528
Ar 0.263236 2.90565 -3.3041
Ar 7.42106 1.61258 -0.603874
Ar -4.25804 -2.20037 4.06663
Ar 1.50878 -0.286532 2.14928
Ar 5.26199 0.774375 2.24091
Ar -3.54714 1.13626 5.45182
Ar 8.71363 2.14253 3.13104
Ar -0.41481 -1.49295 4.89062
Ar 2.80418 0.377955 -4.11322
Ar 3.83854 6.66917 3.16561
Ar 4.70297 2.47478 8.31087
Ar 0.356272 -5.12727 5.11672
Ar 0.0248053 2.56876 0.292382
Ar 6.58205 0.186398 5.9177
Ar -5.67739 0.22147 1.76892
Ar -0.0952944 5.79066 2.71997
Ar -3.28305 -3.23292 0.22696
Ar 4.70164 3.88253 -2.97421
Ar 1.85199 4.64335 5.86787
Ar 0.0603066 -0.811392 -1.10688
Ar 6.17504 -1.1513 -2.88331
Ar 5.62202 3.65425 5.03822
Ar 4.13148 -2.00823 0.143911
Ar 2.02453 -1.89786 7.85739
Ar 3.00091 0.909617 5.27426
Ar -2.07766 5.62675 -1.13465
Ar -2.8759 1.43731 -1.60574
Ar 1.91593 5.39564 -0.786604
Ar 3.35791 1.49091 -0.721855
38
Atoms. Timestep: 190000
Ar 2.55304 4.11659 2.8434
Ar 6.4394 -2.21191 1.89784
Ar 5.91105 4.22986 0.979276
Ar -0.640608 3.01923 4.46023
Ar -3.67441 4.54981 2.52635
Ar 3.23883 -2.01052 4.09928
Ar -2.29615 0.73066 1.55439
Ar -0.536637 -2.52743 0.977139
Ar -0.231564 1.40325 7.95579
Ar 0.157186 3.83236 -2.82395
Ar 6.11266 0.844476 -0.94482
Ar -3.99567 -2.29088 3.12047
Ar 1.1637 0.420647 2.17696
Ar 4.61473 1.0208 2.62673
Ar -3.66802 1.29387 5.32184
Ar 8.20738 1.08686 2.5771
Ar -0.792151 -1.0153 4.83259
Ar 0.447877 -3.03228 -2.5648
Ar 3.54422 7.54199 3.20245
Ar 4.30165 2.21913 8.40746
Ar 1.63265 -4.88916 2.59015
Ar -0.417283 3.62104 0.888218
Ar 5.71646 -0.0760964 5.94978
Ar -5.95741 1.14662 1.9317
Ar -0.631637 6.62034 3.05812
Ar -3.36778 -1.45427 -1.5015
Ar 4.6885 4.1339 -2.72391
Ar 1.57443 5.2328 6.23717
Ar -0.0898589 0.582154 -1.34622
Ar 2.93239 0.501898 -3.58315
Ar 5.49037 3.49034 4.94954
Ar 2.9714 -1.39829 -0.369526
Ar 2.55181 -1.40386 7.67745
Ar 2.49585 1.56472 5.40185
Ar -2.76461 6.27826 -0.768474
Ar -3.12331 2.74139 -1.4076
Ar 2.19958 5.93026 -0.219786
Ar 2.91736 2.27445 -0.364474
38
Atoms. Timestep: 200000
Ar 2.06346 4.18747 2.64581
Ar 6.20454 -1.83539 2.9347
Ar 5.07732 4.82084 0.992124
Ar -1.22143 3.6648 4.10488
Ar -3.6014 5.53673 1.6537
Ar 2.62616 -1.724 3.52459
Ar -2.91382 1.41186 1.45522
Ar -0.473652 -2.90493 1.92545
Ar -0.739415 1.73419 7.3809
Ar -0.180982 4.47394 -3.63769
Ar 6.25355 1.71402 -0.722805
Ar -5.21032 -1.19903 2.64303
Ar 0.562443 0.799806 1.85759
Ar 4.41995 1.40471 2.59868
Ar -4.01728 -0.30562 6.79797
Ar 7.73079 2.4101 3.00414
Ar -0.946675 -0.770495 4.77577
Ar -3.19074 -1.80252 -0.420109
Ar 3.34602 7.19578 4.05511
Ar 2.957 2.69088 8.29971
Ar 0.559396 -2.88274 -2.1558
Ar -0.732599 3.8404 0.510808
Ar 5.28445 0.126249 6.31481
Ar -5.0214 2.13061 4.31328
Ar -0.482658 7.50032 2.49783
Ar -6.35069 2.35987 1.00195
Ar 3.8464 4.91241 -2.99863
Ar 1.34631 5.04438 6.3796
Ar -0.44655 0.593933 -1.40801
Ar 2.49992 0.517321 -3.53122
Ar 5.01061 3.89687 5.29985
Ar 3.46267 -1.13919 -0.18808
Ar 1.70594 -1.73243 7.26006
Ar 1.92139 1.5724 5.10009
Ar -2.07871 6.87973 -1.65104
Ar -3.49497 2.79288 -1.71233
Ar 1.45532 6.9839 -0.573085
Ar 2.77383 2.49655 -0.481963
38
Atoms. Timestep: 210000
Ar 1.69084 4.67274 2.37493
Ar 6.30629 -1.33683 2.52595
Ar 5.91329 5.36325 2.14631
Ar -1.63936 3.61119 3.88225
Ar -4.18705 5.69266 2.6376
Ar 2.5759 -1.33359 3.73843
Ar -3.66007 1.75551 1.45662
Ar -3.12989 -1.2113 -0.67545
Ar -1.2951 2.38661 7.60402
Ar -1.5619 5.97341 -3.20302
Ar 6.75469 1.15008 0.00306235
Ar -4.93744 -1.52923 3.26285
Ar 0.750812 1.45887 0.873049
Ar 4.17223 1.94569 2.64927
Ar -3.34492 -0.572235 6.64244
Ar 8.18261 2.14489 3.37148
Ar -1.2689 -0.199283 3.64646
Ar -6.439 0.0839465 0.00830394
Ar 2.83409 8.18638 2.75428
Ar 2.36384 2.41567 8.51571
Ar 0.268764 -0.679774 -1.92319
Ar -1.4039 4.4436 0.329621
Ar 5.08093 0.462736 5.94264
Ar -5.10369 2.4917 4.90118
Ar -0.818878 7.22069 2.90679
Ar -7.32132 3.09908 1.81313
Ar 3.44728 0.790554 -3.38899
Ar 0.332464 5.78386 5.88157
Ar -2.97108 2.11482 -2.19391
Ar 0.69967 3.01574 -2.76089
Ar 3.87643 4.69868 5.43568
Ar 3.80911 -1.12041 -0.0973828
Ar 0.822892 -0.901719 6.98496
Ar 1.32842 1.97169 4.83889
Ar -2.77101 8.21244 -0.0292918
Ar -5.03468 4.84703 -1.25876
Ar 1.4569 6.69894 -0.809771
Ar 3.81696 3.58951 -0.709741
38
Atoms. Timestep: 220000
Ar 1.02058 5.29016 2.53833
Ar 3.93921 -1.5515 0.29792
Ar 4.22021 5.15498 0.730856
Ar -2.42258 4.7481 4.05082
Ar -5.19401 6.75514 2.02756
Ar 0.775435 -1.12085 3.31745
Ar -4.31555 2.82477 1.73567
Ar -2.59575 -0.768037 1.30423
Ar -1.85593 3.31676 7.69424
Ar -1.7142 8.40776 -2.08654
Ar 5.16227 2.03421 -1.47133
Ar -6.39556 -0.209759 3.28047
Ar -0.691075 2.24014 1.74524
Ar 2.9374 1.81436 2.0407
Ar -4.93738 0.374611 7.94309
Ar 6.44952 1.45435 2.82907
Ar -2.76668 0.794482 4.62772
Ar -6.61361 0.702429 -1.05361
Ar 3.70458 7.81669 3.12739
Ar 1.6328 3.40771 8.81264
Ar 1.4111 1.40853 -4.28313
Ar -2.07159 5.31342 0.0930098
Ar 3.70008 0.531193 5.7074
Ar -5.68891 2.78998 5.13617
Ar 1.02308 10.1796 4.40455
Ar -7.79012 3.61928 2.15401
Ar 2.41815 5.41277 -3.90386
Ar 0.416474 6.64544 6.06907
Ar -2.25807 1.77676 -1.44578
Ar -1.58245 4.71012 -3.47747
Ar 3.86872 4.20788 4.49657
Ar 0.963214 -0.0577253 -0.654721
Ar -0.831527 -0.308472 7.928
Ar 0.537581 2.41025 5.13943
Ar -1.431 8.20825 2.22392
Ar -5.42063 4.81543 -1.31699
Ar 1.18239 7.56595 -0.410296
Ar 1.21553 3.68671 -0.940903
38
Atoms. Timestep: 230000
Ar 0.517665 5.57653 3.34285
Ar 3.03181 -1.5591 1.33139
Ar 3.73398 5.6574 0.208446
Ar -2.6328 4.86708 5.50921
Ar -3.87802 8.02824 4.02957
Ar -0.199901 -0.677881 2.85647
Ar -5.05906 3.38629 2.34227
Ar -3.69633 -0.0754775 1.20055
Ar -2.32389 2.36582 8.50355
Ar -3.49546 8.79054 -0.70108
Ar 3.05626 2.76821 -1.91367
Ar -6.97565 0.233791 2.83188
Ar -1.47258 2.69056 2.22154
Ar 1.97616 2.04851 1.70921
Ar -6.62357 3.58535 5.65599
Ar 5.56614 1.75932 1.45408
Ar -3.45042 1.09641 4.9164
Ar -6.44102 1.41123 -1.05612
Ar 3.08529 8.74 2.02205
Ar 1.38417 5.06056 7.55893
Ar -0.239181 2.47784 -3.61943
Ar -2.68877 5.87819 1.25478
Ar 3.50203 0.520237 4.66788
Ar -7.18687 6.43214 2.86577
Ar 3.27779 8.77602 5.82455
Ar -8.66342 3.18485 1.24618
Ar 2.37553 6.02462 -3.48793
Ar -0.764005 7.95934 6.23295
Ar -3.14406 3.10717 -1.09972
Ar -2.40404 5.92326 -3.01868
Ar 4.03008 4.22136 4.28026
Ar -0.0315958 0.550824 -0.769673
Ar -0.373939 -1.34275 6.46164
Ar 0.1191 2.29323 5.4932
Ar -0.973092 9.01921 2.43334
Ar -6.27767 5.6096 -0.647277
Ar -0.0257156 8.09316 -1.09535
Ar 0.272511 4.55382 -0.37461
38
Atoms. Timestep: 240000
Ar 0.646888 5.15713 3.60612
Ar 2.43442 -1.08009 -0.382853
Ar 3.30066 5.04318 1.16195
Ar -2.58018 4.77245 5.37252
Ar -4.25401 9.59033 3.55765
Ar -0.924415 -0.93944 2.79554
Ar -5.08516 3.74904 2.23668
Ar -4.4288 0.663243 0.269687
Ar -2.94119 1.06376 6.89842
Ar -4.63815 9.56646 -1.59425
Ar 2.73379 2.44354 -1.55963
Ar -8.04224 1.60564 2.28389
Ar -1.90793 2.47427 2.70402
Ar 1.55013 1.91979 2.06233
Ar -6.05013 2.82078 5.5919
Ar 5.14812 1.37346 1.52374
Ar -4.48988 -0.212191 3.67178
Ar -6.98166 3.4314 -0.819137
Ar 1.23964 8.07682 1.01612
Ar 1.5167 5.53629 7.23756
Ar -0.435826 4.52194 -3.44999
Ar -2.42968 6.5084 2.0471
Ar 2.72195 -1.18184 3.21351
Ar -6.30907 6.87059 4.42385
Ar 2.9264 7.72418 4.68173
Ar -8.61348 5.33012 1.83819
Ar 2.06448 6.78705 -2.21162
Ar -0.824061 8.29352 5.03238
Ar -3.38763 4.06003 -0.888768
Ar -5.07841 6.25554 -3.27217
Ar 3.71193 3.60792 4.73537
Ar -0.809269 0.636641 -0.497397
Ar 0.400564 -0.937124 6.54604
Ar 0.232853 2.46147 5.8101
Ar -1.78074 10.1746 0.877498
Ar -5.64992 6.93858 0.654911
Ar -1.67489 7.3063 -1.65193
Ar -0.0860619 4.46812 0.126842
38
Atoms. Timestep: 250000
Ar 0.360997 5.14414 3.83282
Ar 2.20321 -1.0375 -0.00966387
Ar 3.55209 5.33989 1.34843
Ar -2.75429 5.84601 5.6767
Ar -4.41509 8.33888 3.94253
Ar -3.68603 -1.09582 0.436941
Ar -5.02026 4.82892 2.91862
Ar -4.78995 1.48446 -2.0913
Ar -3.00946 -0.79381 4.55976
Ar -8.63761 6.82961 -1.69725
Ar 2.67898 2.28462 -1.64363
Ar -8.35317 3.78267 3.69516
Ar -2.21388 2.49756 3.0066
Ar 1.40788 1.85365 2.06083
Ar -4.93528 2.26577 5.56946
Ar 5.03481 1.35798 1.36178
Ar -5.69218 1.34374 2.24671
Ar -7.07647 3.85522 -0.081479
Ar 1.18269 8.09517 0.965475
Ar 0.546108 4.87439 7.40885
Ar -1.57425 3.77888 -3.66047
Ar -2.15285 6.75839 1.83173
Ar 2.82448 -0.859089 3.88798
Ar -6.59834 6.33729 5.83527
Ar 3.01699 7.84214 4.30926
Ar -8.20216 7.34007 2.36231
Ar 2.27728 5.91636 -2.33944
Ar -0.803303 8.83757 4.40539
Ar -3.33193 4.09786 -0.145107
Ar -5.07148 5.46035 -3.11871
Ar 3.49024 2.88157 4.82039
Ar -1.1225 1.25954 -0.760862
Ar -0.43461 -1.35845 2.26263
Ar -0.0656255 1.37661 5.7088
Ar -2.50365 10.2249 0.443973
Ar -5.22598 7.59537 -0.0546438
Ar -1.4932 7.19831 -1.84927
Ar 0.206086 4.50351 0.0612032
38
Atoms. Timestep: 260000
Ar 0.745211 5.01133 3.48975
Ar 1.31007 -1.35041 -0.0975686
Ar 3.3511 4.64812 0.552228
Ar -1.93459 5.17565 6.01681
Ar -4.2164 8.28805 4.95012
Ar -3.96525 -1.60031 -0.483366
Ar -5.75478 5.19776 2.52807
Ar -4.82952 1.62362 -2.66968
Ar -5.87854 -1.26909 3.61956
Ar -7.05498 8.12664 -3.31843
Ar 1.86277 2.39035 -2.02927
Ar -6.89538 2.27911 4.51305
Ar -2.35361 3.31967 2.92728
Ar 1.04908 1.66776 2.02235
Ar -3.72686 1.65474 5.82809
Ar 4.36619 0.702071 0.699977
Ar -5.36667 1.74827 1.16378
Ar -9.10258 2.30179 1.62761
Ar 1.0387 8.11757 0.871436
Ar 1.94646 5.27514 6.80032
Ar -1.39562 3.49973 -3.59629
Ar -2.26388 6.77371 2.05127
Ar 1.34407 -1.33923 4.45952
Ar -5.6238 5.41407 6.71389
Ar 3.50042 7.14206 3.63402
Ar -7.46042 4.61098 -0.898042
Ar 1.10966 6.1553 -3.01171
Ar -0.293296 8.19025 4.76105
Ar -3.65306 4.57653 -0.535213
Ar -4.64473 5.20746 -3.93633
Ar 3.6873 2.94498 4.248
Ar -1.80548 1.40959 -0.342917
Ar -2.01685 -0.465812 2.99227
Ar -0.0563393 2.07864 5.56753
Ar -2.02429 10.1154 1.23383
Ar -5.24911 8.07167 0.433153
Ar -1.96885 7.60072 -1.65395
Ar -0.182358 4.81659 0.0785382
38
Atoms. Timestep: 270000
Ar 0.632242 4.81324 3.07263
Ar 0.464972 -1.83463 0.300042
Ar 3.2112 4.25786 0.446199