38
Atoms. Timestep: 0
Ar 1.668 1.873 0
Ar 5.651 1.903 0.003
Ar 1.878 5.656 -0.01
Ar -1.867 1.863 -0.007
Ar -5.65 1.873 -0.014
Ar -1.898 5.645 -0.014
Ar -1.857 -1.873 0
Ar -5.64 -1.903 -0.003
Ar -1.867 -5.656 0.01
Ar 1.878 -1.863 0.007
Ar 5.661 -1.873 0.014
Ar 1.909 -5.645 0.014
Ar 0.002 0.007 2.642
Ar 3.751 0.017 2.659
Ar -3.75 -0.003 2.646
Ar -0.008 3.756 2.646
Ar 0.012 -3.745 2.659
Ar 3.761 3.786 2.656
Ar -3.778 3.766 2.646
Ar -3.757 -3.773 2.663
Ar 3.781 -3.752 2.673
Ar 0.009 -0.007 -2.642
Ar 3.761 0.003 -2.646
Ar -3.74 -0.017 -2.659
Ar -0.002 3.746 -2.659
Ar 0.019 -3.756 -2.646
Ar 3.768 3.773 -2.663
Ar -3.771 3.752 -2.673
Ar -3.75 -3.786 -2.656
Ar 3.788 -3.766 -2.646
Ar 1.871 1.897 5.329
Ar -1.888 1.886 5.325
Ar -1.878 -1.873 5.332
Ar 1.881 -1.863 5.339
Ar 1.888 1.873 -5.332
Ar -1.871 1.863 -5.339
Ar -1.861 -1.897 -5.329
Ar 1.898 -1.886 -5.325
38
Atoms. Timestep: 10000
Ar 1.91177 1.8542 0.0209975
Ar 5.68931 1.84494 0.0740971
Ar 1.92465 5.75277 -0.055338
Ar -1.91143 1.84983 -0.0397657
Ar -5.66172 1.81878 -0.0133283
Ar -1.88599 5.6997 -0.0181954
Ar -1.84755 -1.88473 -0.0257636
Ar -5.68842 -1.98112 -0.0280764
Ar -1.94552 -5.75458 0.0259683
Ar 1.89138 -1.86051 0.0484493
Ar 5.6368 -1.86891 0.0229912
Ar 1.96096 -5.6308 -0.0300632
Ar 0.0309522 -0.0354281 2.55484
Ar 3.75449 0.0571907 2.72674
Ar -3.77633 0.00646784 2.64098
Ar -0.042754 3.75126 2.51847
Ar 0.0716753 -3.77947 2.68542
Ar 3.72934 3.80421 2.63877
Ar -3.77725 3.8298 2.59203
Ar -3.72324 -3.70753 2.63196
Ar 3.85201 -3.71309 2.66685
Ar -0.0145951 0.0649889 -2.63525
Ar 3.76457 -0.0385955 -2.57916
Ar -3.78585 -0.0733276 -2.64262
Ar -0.0222238 3.73236 -2.64584
Ar 0.00802676 -3.72269 -2.62639
Ar 3.78449 3.73859 -2.63128
Ar -3.83251 3.77205 -2.57109
Ar -3.81516 -3.80838 -2.70181
Ar 3.78659 -3.7467 -2.66424
Ar 1.86257 1.97427 5.3156
Ar -1.8537 1.82726 5.23548
Ar -1.86923 -1.88986 5.31152
Ar 1.8696 -1.91908 5.2924
Ar 1.93887 1.90881 -5.27654
Ar -1.9234 1.90232 -5.33254
Ar -1.95011 -1.89213 -5.24058
Ar 1.86094 -1.88188 -5.2457
38
Atoms. Timestep: 20000
Ar 1.82054 1.85731 -0.035162
Ar 5.54617 2.03096 -0.0319964
Ar 1.89001 5.57322 -0.0508756
Ar -1.86714 1.76976 0.0144687
Ar -5.61197 2.02714 -0.0319482
Ar -1.91839 5.57807 -0.0610535
Ar -1.89914 -1.90539 0.0552926
Ar -5.65351 -1.83148 0.0414557
Ar -2.00264 -5.60456 -0.0133349
Ar 1.76257 -1.84411 0.0327055
Ar 5.78805 -1.77273 -0.0412199
Ar 1.88193 -5.59302 -0.0415558
Ar 0.027573 -0.0438223 2.63643
Ar 3.66498 0.0140414 2.68926
Ar -3.71727 0.0345826 2.75096
Ar -0.0652407 3.72279 2.66122
Ar -0.0259939 -3.86254 2.70367
Ar 3.64717 3.77955 2.68377
Ar -3.84979 3.88694 2.63622
Ar -3.7756 -3.80386 2.83247
Ar 3.93939 -3.68654 2.53495
Ar -0.0250939 -0.0674854 -2.62454
Ar 3.83453 0.0464559 -2.72273
Ar -3.75643 0.0454418 -2.60969
Ar 0.0230187 3.64426 -2.65955
Ar 0.0369832 -3.86897 -2.71308
Ar 3.88354 3.86617 -2.74105
Ar -3.80352 3.87027 -2.81211
Ar -3.84816 -3.72116 -2.65241
Ar 3.82386 -3.67346 -2.62596
Ar 1.76409 1.78999 5.45693
Ar -1.94992 1.88176 5.37548
Ar -1.76428 -1.87226 5.43376
Ar 2.00989 -1.9637 5.20196
Ar 1.94061 1.82188 -5.35284
Ar -1.88089 1.73524 -5.2982
Ar -1.85509 -1.96952 -5.31315
Ar 1.98717 -1.89023 -5.30853
38
Atoms. Timestep: 30000
Ar 1.84806 1.82859 0.0952901
Ar 5.59253 1.97339 -0.0976102
Ar 2.00103 5.62338 -0.111333
Ar -1.83176 1.94461 0.0456556
Ar -5.65367 1.81899 -0.0443944
Ar -1.92347 5.79372 0.0439225
Ar -1.82405 -1.91095 -0.0321832
Ar -5.49728 -2.02913 -0.154044
Ar -1.88882 -5.75651 0.107016
Ar 1.84208 -1.9165 0.0471125
Ar 5.73079 -1.75713 -0.0457092
Ar 1.87903 -5.77572 0.0528028
Ar 0.0200023 -0.0343095 2.69353
Ar 3.7605 0.0311723 2.66202
Ar -3.80911 0.00530089 2.61362
Ar -0.00184767 3.80178 2.59663
Ar -0.0157696 -3.77512 2.70686
Ar 3.67532 3.78968 2.68353
Ar -3.73013 3.84387 2.59285
Ar -3.71437 -3.859 2.72422
Ar 3.77629 -3.70773 2.65078
Ar -0.00547541 -0.00818092 -2.60266
Ar 3.72471 -0.064435 -2.67134
Ar -3.77749 0.0589435 -2.6865
Ar -0.0952919 3.76339 -2.59621
Ar 0.113085 -3.90321 -2.63888
Ar 3.70962 3.71528 -2.85517
Ar -3.81503 3.77041 -2.5686
Ar -3.68831 -3.86462 -2.79309
Ar 3.87384 -3.73646 -2.55634
Ar 1.98718 1.87511 5.34121
Ar -1.85031 1.90479 5.42771
Ar -1.94221 -1.77046 5.31715
Ar 1.85709 -1.91454 5.45372
Ar 1.71907 1.76824 -5.31945
Ar -1.94207 2.12013 -5.3707
Ar -1.95046 -1.6055 -5.35954
Ar 1.84867 -2.04028 -5.35186
38
Atoms. Timestep: 40000
Ar 1.89199 1.84811 -0.0218874
Ar 5.64424 1.86858 -0.0386172
Ar 1.97208 5.58888 0.0283541
Ar -1.88172 1.82503 0.00114336
Ar -5.72638 1.76073 -0.0293858
Ar -1.93088 5.8017 -0.0901086
Ar -1.83667 -1.88601 0.0580311
Ar -5.59566 -1.99504 -0.0317068
Ar -2.03594 -5.6509 -0.0141212
Ar 1.93532 -1.81874 -0.038337
Ar 5.69566 -1.85508 -0.0237092
Ar 1.82903 -5.64376 0.0278123
Ar 0.151825 -0.0318931 2.65201
Ar 3.8648 0.0477827 2.70651
Ar -3.75365 -0.0275471 2.6357
Ar -0.00780989 3.6418 2.65218
Ar 0.101376 -3.78925 2.73395
Ar 3.78173 3.71742 2.75205
Ar -3.89231 3.99947 2.50013
Ar -3.68642 -3.73006 2.75857
Ar 3.9112 -3.75955 2.53511
Ar -0.0206026 -0.0391559 -2.60598
Ar 3.80665 -0.0102206 -2.73285
Ar -3.78894 -0.0971361 -2.67249
Ar -0.0918809 3.79046 -2.6039
Ar -0.0436458 -3.72916 -2.64183
Ar 3.83868 3.71867 -2.69355
Ar -3.87323 3.75451 -2.69974
Ar -3.84711 -3.82236 -2.6791
Ar 3.81172 -3.72166 -2.67697
Ar 1.77767 1.87652 5.42247
Ar -2.02507 1.99349 5.2453
Ar -1.86389 -1.76807 5.33914
Ar 2.06272 -1.87759 5.33741
Ar 1.86628 1.97031 -5.23935
Ar -1.92938 1.84876 -5.18253
Ar -1.93286 -1.92289 -5.33852
Ar 1.8231 -1.87516 -5.33118
38
Atoms. Timestep: 50000
Ar 1.84778 1.88323 -0.0498582
Ar 5.75099 2.03691 -0.116237
Ar 1.86388 5.65961 -0.0846542
Ar -1.90796 1.91683 0.0332101
Ar -5.65509 1.94053 0.00738813
Ar -1.90309 5.61341 0.0196455
Ar -1.90785 -1.81769 0.0482186
Ar -5.69307 -1.84714 -0.00432207
Ar -1.89681 -5.61932 -0.000697185
Ar 1.81123 -1.81601 0.0890479
Ar 5.7162 -1.79089 -0.00217038
Ar 1.85512 -5.64273 0.0398207
Ar -0.0520114 -0.0196057 2.67815
Ar 3.80534 0.0868476 2.59575
Ar -3.80508 -0.0607487 2.68377
Ar -0.00699623 3.7577 2.70512
Ar -0.0259009 -3.73225 2.70446
Ar 3.72643 3.81403 2.60594
Ar -3.76519 3.75775 2.77976
Ar -3.85791 -3.8361 2.68623
Ar 3.81053 -3.78523 2.55339
Ar 0.00245095 -0.00629273 -2.59348
Ar 3.7931 0.00159773 -2.68235
Ar -3.74162 -0.0301867 -2.62666
Ar -0.0561056 3.75269 -2.70821
Ar 0.0372747 -3.74583 -2.60464
Ar 3.78609 3.7369 -2.69268
Ar -3.79383 3.71453 -2.7121
Ar -3.7508 -3.76144 -2.71909
Ar 3.84071 -3.78567 -2.55226
Ar 1.97967 1.89673 5.28785
Ar -1.91779 1.77986 5.37539
Ar -1.84566 -1.98485 5.34743
Ar 1.91813 -1.89492 5.26578
Ar 1.88839 1.84032 -5.38783
Ar -1.90424 1.85067 -5.38953
Ar -1.8475 -1.89604 -5.28819
Ar 1.90316 -1.9662 -5.29137
38
Atoms. Timestep: 60000
Ar 1.84136 1.90094 -0.0164939
Ar 5.6439 1.88269 0.0608193
Ar 1.93735 5.62868 -0.0362788
Ar -1.85211 1.83611 -0.0266213
Ar -5.63273 1.85107 0.0362224
Ar -1.89643 5.73753 -0.0230353
Ar -1.87595 -1.89911 -0.0197969
Ar -5.65803 -1.99992 0.0594834
Ar -1.79069 -5.69337 0.10653
Ar 1.85165 -1.83929 -0.0514546
Ar 5.61786 -1.95201 -0.0268574
Ar 2.05214 -5.56771 0.00996892
Ar 0.0374014 -0.0276258 2.68343
Ar 3.68425 -0.048715 2.62064
Ar -3.73657 -0.0190802 2.68639
Ar 0.00601713 3.74108 2.61045
Ar 0.0357287 -3.73084 2.66125
Ar 3.78164 3.81501 2.58937
Ar -3.74546 3.79772 2.58877
Ar -3.73485 -3.78029 2.73402
Ar 3.79039 -3.73014 2.77694
Ar -0.0576647 -0.0318042 -2.71711
Ar 3.71059 0.041359 -2.70185
Ar -3.75325 -0.0165399 -2.66109
Ar 0.000851325 3.73445 -2.61336
Ar 0.0204865 -3.75018 -2.64049
Ar 3.79385 3.81423 -2.66722
Ar -3.77959 3.78645 -2.6677
Ar -3.72767 -3.83786 -2.58837
Ar 3.76059 -3.72622 -2.76496
Ar 1.82243 1.84298 5.37635
Ar -1.95441 1.92954 5.3229
Ar -1.87959 -1.89063 5.40831
Ar 1.87592 -1.88621 5.35566
Ar 1.91456 1.93948 -5.3543
Ar -1.85521 1.90049 -5.40804
Ar -1.9805 -1.92066 -5.30934
Ar 1.73373 -1.83061 -5.39316
38
Atoms. Timestep: 70000
Ar 1.84789 1.81624 0.0636425
Ar 5.62197 1.88573 0.0221182
Ar 1.80634 5.7896 -0.00616625
Ar -1.93398 1.82993 0.0133496
Ar -5.6916 2.00954 0.016896
Ar -2.03506 5.65018 -0.0591294
Ar -1.84483 -1.86826 0.00417698
Ar -5.601 -1.92396 0.0739712
Ar -1.89649 -5.64965 -0.00874778
Ar 1.94108 -1.91372 -0.0373822
Ar 5.71684 -1.87329 0.0139255
Ar 1.91695 -5.69441 0.0810039
Ar 0.0210921 -0.0145135 2.63166
Ar 3.82876 0.001541 2.65188
Ar -3.75771 0.0390572 2.59359
Ar -0.0416023 3.80088 2.57623
Ar -0.0117504 -3.80147 2.70186
Ar 3.73338 3.79609 2.54159
Ar -3.74412 3.77102 2.69971
Ar -3.79823 -3.78082 2.6897
Ar 3.85272 -3.7906 2.63864
Ar 0.0190914 -0.0307897 -2.67114
Ar 3.77229 -0.0158344 -2.64074
Ar -3.79484 0.0204888 -2.65038
Ar -0.0632469 3.682 -2.60962
Ar -0.00550523 -3.74366 -2.59347
Ar 3.67322 3.74731 -2.61855
Ar -3.82408 3.82778 -2.69738
Ar -3.73651 -3.78804 -2.69344
Ar 3.83026 -3.74756 -2.60657
Ar 1.92698 1.92249 5.22403
Ar -1.82648 1.81295 5.31057
Ar -1.83304 -1.92949 5.31667
Ar 1.98125 -1.84406 5.31803
Ar 1.87029 1.90609 -5.31892
Ar -1.8769 1.90659 -5.32706
Ar -1.90386 -1.85922 -5.36144
Ar 1.86244 -1.94513 -5.28311
38
Atoms. Timestep: 80000
Ar 1.84029 1.93183 -0.0172793
Ar 5.61473 1.92895 -0.0314634
Ar 1.83589 5.65723 -0.00995595
Ar -1.84759 1.83304 0.031285
Ar -5.6551 1.87865 0.00826055
Ar -1.92341 5.64744 -0.00270371
Ar -1.87425 -1.86491 0.0580101
Ar -5.66426 -1.92713 0.0201715
Ar -1.87654 -5.67572 -0.023111
Ar 1.84096 -1.83276 -0.029702
Ar 5.7085 -1.82716 0.0431517
Ar 1.95996 -5.67175 -0.033483
Ar 0.00257262 0.0130006 2.66654
Ar 3.78211 -0.00427894 2.63207
Ar -3.68099 -0.00623766 2.64834
Ar -0.00013439 3.77305 2.70941
Ar 0.00460273 -3.7735 2.60233
Ar 3.76491 3.74954 2.72102
Ar -3.75611 3.83871 2.68287
Ar -3.82763 -3.79953 2.67648
Ar 3.75068 -3.76287 2.66909
Ar -0.0286614 -0.025762 -2.67478
Ar 3.73555 0.0642025 -2.66158
Ar -3.80778 -0.0602539 -2.63574
Ar -0.0393288 3.70721 -2.6648
Ar 0.0614004 -3.75385 -2.62384
Ar 3.73031 3.81535 -2.76352
Ar -3.74584 3.72771 -2.64734
Ar -3.76657 -3.78006 -2.66231
Ar 3.88413 -3.73709 -2.58054
Ar 1.95767 1.97656 5.41226
Ar -1.83556 1.83743 5.3536
Ar -1.9171 -1.89927 5.33352
Ar 1.92075 -1.80879 5.29774
Ar 1.82908 1.83849 -5.35863
Ar -1.90672 1.93403 -5.40731
Ar -1.91712 -1.96191 -5.37211
Ar 1.84859 -1.9786 -5.36596
38
Atoms. Timestep: 90000
Ar 1.87998 1.88069 0.00176979
Ar 5.63919 1.89387 0.0190964
Ar 1.86339 5.60849 -0.00348163
Ar -1.85154 1.85115 -0.0610198
Ar -5.65805 1.71171 -0.00885685
Ar -1.84564 5.60237 -0.0523963
Ar -1.87959 -1.9001 0.0165543
Ar -5.63408 -1.95122 0.0789588
Ar -1.87822 -5.64421 -0.00273667
Ar 1.82041 -1.7835 -0.0256888
Ar 5.61297 -1.93624 0.0804174
Ar 1.91564 -5.57574 -0.0392481
Ar 0.0348932 0.00592216 2.6481
Ar 3.72171 0.0119257 2.62459
Ar -3.70285 -0.000144707 2.69621
Ar 0.00201089 3.74935 2.66133
Ar -0.0284784 -3.76057 2.71756
Ar 3.84171 3.82157 2.78826
Ar -3.765 3.76489 2.58247
Ar -3.80642 -3.79017 2.81761
Ar 3.72095 -3.79952 2.67231
Ar 0.0316937 0.049214 -2.62559
Ar 3.76055 0.0691573 -2.72967
Ar -3.75762 -0.0571591 -2.66833
Ar 0.0541873 3.81399 -2.71346
Ar 0.0564705 -3.79689 -2.75392
Ar 3.72095 3.80663 -2.768
Ar -3.78785 3.69257 -2.54693
Ar -3.76333 -3.8415 -2.59761
Ar 3.86682 -3.70886 -2.76663
Ar 1.81684 1.85744 5.39232
Ar -2.00316 1.95952 5.37511
Ar -1.83263 -1.8297 5.43024
Ar 1.94954 -1.8026 5.31157
Ar 1.84969 1.98261 -5.47966
Ar -1.85429 1.8429 -5.30624
Ar -1.94558 -1.94088 -5.34563
Ar 1.83675 -1.85597 -5.41938
38
Atoms. Timestep: 100000
Ar 1.88236 1.92668 -0.0628725
Ar 5.67299 2.0199 0.0753677
Ar 1.89388 5.66651 -0.137751
Ar -1.87449 1.87647 -0.0171142
Ar -5.70252 1.91234 0.112942
Ar -1.89965 5.57758 0.00217543
Ar -1.86307 -1.9052 0.0145686
Ar -5.58087 -1.86511 -0.0273321
Ar -1.90459 -5.66329 -0.0175341
Ar 1.90593 -1.93213 0.0407905
Ar 5.803 -1.86642 0.0619691
Ar 1.83759 -5.76947 0.00234468
Ar -0.016242 0.0125199 2.60188
Ar 3.75394 0.0833537 2.5691
Ar -3.80282 -0.00608901 2.68091
Ar 0.00710813 3.76332 2.68323
Ar 0.0301504 -3.77764 2.67028
Ar 3.78185 3.84971 2.64917
Ar -3.84359 3.79117 2.75297
Ar -3.75506 -3.70206 2.69118
Ar 3.76207 -3.81715 2.59326
Ar -0.0350868 -0.0097885 -2.60379
Ar 3.78283 -0.0532134 -2.71396
Ar -3.74232 0.0122497 -2.58736
Ar -0.0900542 3.76686 -2.70918
Ar 0.0659967 -3.73734 -2.65264
Ar 3.70038 3.74782 -2.76197
Ar -3.88126 3.68767 -2.5364
Ar -3.62764 -3.7229 -2.79464
Ar 3.85393 -3.77769 -2.50235
Ar 1.73835 1.75022 5.34144
Ar -1.97285 1.9145 5.41082
Ar -1.75503 -1.74347 5.30841
Ar 1.98399 -1.94286 5.198
Ar 1.79041 1.80396 -5.35531
Ar -2.01484 1.91957 -5.38723
Ar -1.82355 -1.86492 -5.28173
Ar 1.94079 -1.92467 -5.31164
38
Atoms. Timestep: 110000
Ar 1.88709 1.86353 0.0498248
Ar 5.63908 1.97252 -0.00790786
Ar 2.04088 5.73918 0.0333004
Ar -1.86819 1.80228 0.0439683
Ar -5.64813 1.78586 0.00611361
Ar -1.86112 5.68074 0.0518227
Ar -1.79293 -1.90598 -0.0212314
Ar -5.569 -1.98681 -0.0174036
Ar -1.87185 -5.74123 0.0465703
Ar 1.93183 -1.90117 -0.00188848
Ar 5.69797 -1.81962 -0.0288328
Ar 1.87512 -5.66259 0.000994861
Ar 0.0468847 0.0286791 2.64569
Ar 3.74396 0.0155412 2.70189
Ar -3.74865 0.0078624 2.55661
Ar -0.00924997 3.73321 2.61382
Ar 0.0452168 -3.7438 2.68785
Ar 3.77698 3.74494 2.68362
Ar -3.82117 3.77633 2.54355
Ar -3.74286 -3.72051 2.75847
Ar 3.87328 -3.85762 2.68981
Ar -0.0545156 0.0092901 -2.64553
Ar 3.71959 0.0530321 -2.70349
Ar -3.77655 -0.0311935 -2.67293
Ar -0.069481 3.73292 -2.55721
Ar -0.0460778 -3.76458 -2.57795
Ar 3.65121 3.74862 -2.75535
Ar -3.7794 3.75979 -2.54257
Ar -3.74867 -3.89663 -2.69199
Ar 3.72059 -3.7501 -2.69775
Ar 1.84651 1.92337 5.29115
Ar -2.00641 1.95614 5.31876
Ar -1.80617 -1.84056 5.35713
Ar 1.85992 -1.8232 5.31194
Ar 1.7855 1.88001 -5.38564
Ar -1.91732 1.86786 -5.34513
Ar -1.87112 -1.79432 -5.41748
Ar 1.86926 -1.8408 -5.32262
38
Atoms. Timestep: 120000
Ar 1.90713 1.86081 0.0211809
Ar 5.54122 1.8846 -0.0224135
Ar 1.78463 5.62456 0.0307838
Ar -1.84725 1.82624 0.0272878
Ar -5.50672 1.91305 0.0692752
Ar -1.96885 5.61194 0.035369
Ar -1.83661 -1.88943 -0.00969067
Ar -5.66445 -1.86788 -0.0642939
Ar -1.91627 -5.65921 0.037534
Ar 1.89171 -1.85216 -0.0346195
Ar 5.64737 -1.8441 -0.00252685
Ar 1.89327 -5.62344 0.0572146
Ar 0.0300513 0.0753457 2.71857
Ar 3.78313 0.0883799 2.64017
Ar -3.76551 -0.0782158 2.68647
Ar -0.0642271 3.81931 2.70819
Ar -0.00156026 -3.80093 2.62665
Ar 3.77637 3.77058 2.64694
Ar -3.80305 3.78564 2.77517
Ar -3.75691 -3.78587 2.70858
Ar 3.86031 -3.69796 2.62654
Ar -0.0434023 -0.0177598 -2.70764
Ar 3.74943 0.00228308 -2.732
Ar -3.74351 -0.0776817 -2.71512
Ar -0.0182303 3.72024 -2.68845
Ar 0.0875256 -3.77647 -2.70394
Ar 3.76268 3.76531 -2.63633
Ar -3.71579 3.69832 -2.75612
Ar -3.79626 -3.78674 -2.56339
Ar 3.86773 -3.77919 -2.7197
Ar 1.84566 1.96086 5.35908
Ar -1.9187 1.89664 5.41678
Ar -1.89338 -1.85382 5.50635
Ar 1.95785 -1.90904 5.33246
Ar 1.93579 1.91899 -5.37405
Ar -1.89907 1.849 -5.43849
Ar -1.98516 -1.95592 -5.44527
Ar 1.82506 -1.81529 -5.41655
38
Atoms. Timestep: 130000
Ar 1.85013 1.83781 -0.0360609
Ar 5.61534 1.84366 -0.0608729
Ar 1.81375 5.64997 -0.0166469
Ar -1.88269 1.87456 0.0227799
Ar -5.63484 1.98734 0.022786
Ar -1.90822 5.63766 -0.00586256
Ar -1.848 -1.86199 -0.0373996
Ar -5.68602 -1.89018 0.048519
Ar -1.68447 -5.59665 0.0228895
Ar 1.90816 -1.82743 0.017121
Ar 5.65339 -1.9899 -0.0204703
Ar 2.08149 -5.59852 0.0239274
Ar 0.00514292 0.00150514 2.67849
Ar 3.80397 0.00115255 2.654
Ar -3.77607 -0.058135 2.64211
Ar -0.0293284 3.75929 2.68936
Ar 0.132717 -3.7327 2.70323
Ar 3.73058 3.74186 2.60502
Ar -3.71849 3.79061 2.70833
Ar -3.77218 -3.89747 2.61791
Ar 3.85533 -3.72012 2.77425
Ar -0.0158259 0.00687187 -2.69719
Ar 3.773 -0.011816 -2.67036
Ar -3.81947 -0.00875197 -2.54663
Ar -0.0257061 3.71908 -2.72474
Ar 0.0299635 -3.74151 -2.6943
Ar 3.75007 3.76521 -2.63548
Ar -3.74089 3.83157 -2.68724
Ar -3.82013 -3.80267 -2.59585
Ar 3.79892 -3.76071 -2.74309
Ar 1.8045 1.91701 5.30618
Ar -1.92741 1.87447 5.34478
Ar -1.96884 -1.94827 5.31222
Ar 1.81335 -1.78782 5.4116
Ar 1.88223 1.92834 -5.33462
Ar -1.94905 1.82844 -5.42334
Ar -1.96143 -1.8872 -5.25985
Ar 1.86904 -1.87356 -5.4155
38
Atoms. Timestep: 140000
Ar 1.90965 1.81919 -0.0148083
Ar 5.74837 1.90363 0.0650572
Ar 1.87298 5.8247 0.057816
Ar -1.86135 1.87425 0.0103119
Ar -5.69867 1.89881 0.0301727
Ar -1.95808 5.66355 -0.0481333
Ar -1.85691 -1.98452 0.0146441
Ar -5.73803 -1.87208 -0.000798923
Ar -1.91487 -5.70009 0.0477385
Ar 1.87828 -1.9401 -0.0154076
Ar 5.77534 -1.89606 -0.0396729
Ar 1.92405 -5.59264 -0.0142777
Ar -0.00402294 -0.0357841 2.51709
Ar 3.74583 -0.00782745 2.58009
Ar -3.71255 -0.0446188 2.66282
Ar -0.037086 3.80423 2.59374
Ar -0.000747048 -3.77393 2.68431
Ar 3.78 3.87585 2.5068
Ar -3.71086 3.71405 2.67682
Ar -3.8271 -3.77047 2.69933
Ar 3.7741 -3.72909 2.75405
Ar -0.0549883 -0.0716806 -2.68249
Ar 3.79808 0.0739004 -2.63236
Ar -3.72811 0.0484758 -2.60166
Ar -0.0118315 3.72924 -2.58393
Ar -0.0289673 -3.85719 -2.7163
Ar 3.76693 3.82415 -2.55365
Ar -3.87603 3.76296 -2.72331
Ar -3.76878 -3.83539 -2.63615
Ar 3.82437 -3.74962 -2.68694
Ar 1.91969 1.98196 5.17736
Ar -1.80533 1.77814 5.30447
Ar -1.86898 -1.95772 5.32233
Ar 1.83461 -1.7902 5.3607
Ar 1.8922 1.95982 -5.25914
Ar -1.88262 1.83799 -5.29029
Ar -1.97466 -1.95157 -5.28211
Ar 1.8781 -1.8133 -5.28422
38
Atoms. Timestep: 150000
Ar 1.893 1.98809 -0.0378904
Ar 5.67962 1.9395 0.0838035
Ar 1.8018 5.76482 -0.0108576
Ar -1.83705 1.7886 -0.0326933
Ar -5.50287 2.00071 0.00125049
Ar -1.93261 5.65283 -0.0234251
Ar -1.93272 -1.95702 -0.0674025
Ar -5.7631 -1.86056 0.0177941
Ar -1.79468 -5.7681 -0.0479956
Ar 1.92965 -1.91862 0.0125948
Ar 5.71756 -1.8663 0.0564824
Ar 1.9838 -5.67274 -0.087833
Ar -9.53287e-05 -0.0747094 2.59393
Ar 3.74811 0.0736425 2.60147
Ar -3.7719 0.000321849 2.69728
Ar 0.051841 3.66624 2.62013
Ar -0.0442412 -3.79805 2.64116
Ar 3.75866 3.9393 2.71979
Ar -3.71846 3.69689 2.70158
Ar -3.80664 -3.78237 2.68777
Ar 3.77173 -3.79461 2.63338
Ar 0.0499145 -0.0108555 -2.58537
Ar 3.7137 0.00856657 -2.57302
Ar -3.76017 -0.0633581 -2.70814
Ar -0.0629134 3.75841 -2.521
Ar -0.0233222 -3.78258 -2.65756
Ar 3.84346 3.87979 -2.60751
Ar -3.81593 3.70598 -2.74921
Ar -3.9738 -3.90388 -2.58001
Ar 3.77862 -3.63336 -2.75126
Ar 1.98576 1.98632 5.30835
Ar -1.72994 1.89386 5.372
Ar -1.90284 -1.7878 5.311
Ar 1.88049 -1.81618 5.26104
Ar 1.88401 1.87825 -5.21139
Ar -1.89255 1.80127 -5.42787
Ar -1.99197 -2.03218 -5.31811
Ar 1.7881 -1.89907 -5.32226
38
Atoms. Timestep: 160000
Ar 1.81509 1.87831 0.0296283
Ar 5.59022 1.94363 -0.00502697
Ar 1.84322 5.66434 -0.0985257
Ar -1.90661 1.8866 -0.0747095
Ar -5.57642 1.94345 0.0122593
Ar -1.9605 5.63163 0.0217748
Ar -1.93683 -1.86235 0.0491362
Ar -5.7036 -1.90803 0.0499307
Ar -1.76067 -5.76426 0.0436255
Ar 1.78077 -1.86985 -0.0497269
Ar 5.54881 -1.86871 -0.0333016
Ar 2.04905 -5.59099 0.00863086
Ar 0.0237626 0.0410549 2.63935
Ar 3.85101 -0.0179578 2.68089
Ar -3.80453 0.00554824 2.697
Ar 0.0638842 3.77891 2.66669
Ar 0.0939076 -3.75347 2.72835
Ar 3.70612 3.70008 2.69789
Ar -3.70893 3.73443 2.68588
Ar -3.67072 -3.83615 2.67568
Ar 3.80092 -3.78815 2.79266
Ar -0.0311467 0.0142453 -2.71132
Ar 3.71607 0.013466 -2.68808
Ar -3.8082 -0.000244417 -2.69018
Ar 0.0658912 3.72301 -2.79062
Ar 0.0611889 -3.81661 -2.6346
Ar 3.77317 3.82093 -2.71355
Ar -3.75944 3.83402 -2.70124
Ar -3.7432 -3.82484 -2.48305
Ar 3.8574 -3.85739 -2.80737
Ar 1.81198 1.83601 5.43784
Ar -1.92674 1.82318 5.40129
Ar -1.9177 -1.8679 5.34224
Ar 1.84072 -1.78225 5.37428
Ar 1.8728 1.81036 -5.38959
Ar -1.93948 1.98504 -5.4598
Ar -1.89008 -1.78228 -5.3204
Ar 1.88081 -1.8758 -5.38395
38
Atoms. Timestep: 170000
Ar 1.9654 1.84634 -0.0493192
Ar 5.72971 1.89805 -0.0149983
Ar 1.75833 5.76556 -0.00659968
Ar -1.8628 1.82501 -0.0458492
Ar -5.6772 1.81106 -0.0778658
Ar -2.16567 5.59345 -0.112607
Ar -1.91773 -1.91259 0.0113187
Ar -5.78789 -1.82941 0.0209356
Ar -1.91432 -5.60547 -0.0164705
Ar 1.84706 -1.82171 0.015646
Ar 5.64689 -2.00161 -0.00684166
Ar 1.88945 -5.7281 0.0889288
Ar 0.0399394 0.0396639 2.58681
Ar 3.81667 -0.00920086 2.62482
Ar -3.83801 0.023423 2.73144
Ar -0.0320141 3.84708 2.62886
Ar 0.033883 -3.69478 2.67631
Ar 3.80986 3.75883 2.61735
Ar -3.81266 3.66366 2.73189
Ar -3.71939 -3.74673 2.8248
Ar 3.84853 -3.75637 2.67135
Ar 0.0276235 0.028194 -2.67743
Ar 3.87344 -0.0718292 -2.61156
Ar -3.68653 0.0527249 -2.63072
Ar -0.145006 3.83169 -2.65974
Ar 0.0303793 -3.80944 -2.55989
Ar 3.75541 3.797 -2.5916
Ar -3.92176 3.78874 -2.85888
Ar -3.87261 -3.72491 -2.69697
Ar 3.83646 -3.82413 -2.62906
Ar 1.9051 1.83368 5.28421
Ar -1.838 1.76722 5.35595
Ar -1.70519 -1.92935 5.40122
Ar 1.95406 -1.82889 5.28577
Ar 1.9002 1.96442 -5.35682
Ar -1.89078 1.90055 -5.39204
Ar -1.86484 -1.83958 -5.27022
Ar 1.98599 -1.90126 -5.29217
38
Atoms. Timestep: 180000
Ar 1.91423 1.87671 0.0561811
Ar 5.64716 2.00609 -0.0592774
Ar 2.05404 5.60576 0.163965
Ar -1.84418 1.85951 0.0218002
Ar -5.68989 1.84712 -0.0257881
Ar -1.73021 5.76647 -0.0538697
Ar -1.87289 -1.87608 -0.000539401
Ar -5.70549 -2.0232 0.0535296
Ar -1.79543 -5.75925 0.0665689
Ar 1.91079 -1.85849 0.0240652
Ar 5.72629 -1.7486 -0.0136796
Ar 1.9467 -5.68989 -0.0779346
Ar -0.036425 0.0253323 2.60507
Ar 3.72617 0.0371872 2.68391
Ar -3.85017 -0.0287109 2.61954
Ar -0.0095722 3.74553 2.67815
Ar 0.0691142 -3.71199 2.59308
Ar 3.89079 3.85569 2.7955
Ar -3.78822 3.73129 2.58165
Ar -3.71098 -3.806 2.60555
Ar 3.76754 -3.70943 2.61813
Ar -0.0138656 0.0442378 -2.69589
Ar 3.67839 -0.0209602 -2.66428
Ar -3.86412 -0.00330573 -2.6614
Ar -0.0605712 3.73836 -2.72858
Ar -0.0152971 -3.64822 -2.59533
Ar 3.69821 3.73628 -2.79874
Ar -3.72301 3.73738 -2.58419
Ar -3.82178 -3.888 -2.47524
Ar 3.81025 -3.90092 -2.55283
Ar 1.80751 1.97271 5.31138
Ar -1.91873 1.84875 5.29536
Ar -1.88424 -1.86898 5.237
Ar 1.85641 -1.79168 5.38936
Ar 1.92478 1.93199 -5.51832
Ar -1.9982 1.8595 -5.3395
Ar -1.97544 -1.97442 -5.2419
Ar 1.88233 -1.91676 -5.31249
38
Atoms. Timestep: 190000
Ar 1.81913 1.90113 -0.0193471
Ar 5.63991 1.91648 -0.0369251
Ar 1.6589 5.59491 0.0209696
Ar -1.88744 1.8252 0.000823598
Ar -5.5336 1.88485 -0.00357093
Ar -2.04605 5.58557 0.0061929
Ar -1.7537 -1.87817 0.0441436
Ar -5.58812 -1.75021 0.145234
Ar -1.96757 -5.5774 -0.0020314
Ar 1.95255 -1.86172 0.00534246
Ar 5.67787 -1.87658 -0.0477219
Ar 1.86031 -5.84594 0.0539421
Ar 0.0153571 0.0722596 2.68767
Ar 3.71424 0.0705022 2.6149
Ar -3.69154 0.0348692 2.75883
Ar -0.103599 3.75498 2.70291
Ar 0.0896366 -3.77275 2.64124
Ar 3.58287 3.79539 2.68796
Ar -3.86385 3.75696 2.66694
Ar -3.76398 -3.71496 2.78139
Ar 3.83876 -3.80995 2.56423
Ar -0.00914934 -0.0407984 -2.72393
Ar 3.73554 -0.02161 -2.68107
Ar -3.7322 0.0154059 -2.71351
Ar -0.0296098 3.72723 -2.71509
Ar 0.0275317 -3.75968 -2.59271
Ar 3.81369 3.80756 -2.74836
Ar -3.82767 3.75982 -2.72411
Ar -3.7862 -3.73345 -2.75274
Ar 3.82825 -3.91402 -2.5024
Ar 1.89907 1.94502 5.33871
Ar -1.93075 1.92478 5.51009
Ar -1.79244 -1.86784 5.3447
Ar 1.98071 -1.87078 5.35714
Ar 1.97978 1.87947 -5.42619
Ar -1.83734 1.90494 -5.44687
Ar -1.89015 -1.96321 -5.35538
Ar 1.92284 -1.89725 -5.44142
38
Atoms. Timestep: 200000
Ar 1.87125 1.80226 0.068028
Ar 5.63134 1.83301 -0.122199
Ar 1.85499 5.69902 -0.0195464
Ar -1.90403 1.87267 -0.000892154
Ar -5.76079 1.88826 -0.019824
Ar -1.98799 5.66595 0.0293472
Ar -1.85717 -1.92406 -0.0233975
Ar -5.64525 -1.88566 -0.00360731
Ar -1.75328 -5.656 -0.0157092
Ar 1.90337 -1.90715 0.0243569
Ar 5.59001 -1.98764 0.0554148
Ar 2.00118 -5.56833 0.0126744
Ar 0.0760359 0.0140698 2.68403
Ar 3.78049 -0.165049 2.71636
Ar -3.76402 0.120183 2.66689
Ar -0.00489482 3.82724 2.60632
Ar 0.0518692 -3.67203 2.70351
Ar 3.77627 3.68567 2.7225
Ar -3.81273 3.79472 2.54204
Ar -3.65694 -3.82882 2.64581
Ar 3.88064 -3.91178 2.83977
Ar 0.00278313 0.00152803 -2.60689
Ar 3.68641 -0.150656 -2.78309
Ar -3.77087 0.0104178 -2.61082
Ar -0.10902 3.72655 -2.65484
Ar 0.227126 -3.82927 -2.69628
Ar 3.6698 3.67598 -2.77524
Ar -3.83116 3.81495 -2.6098
Ar -3.60319 -3.77099 -2.6675
Ar 3.92869 -3.86724 -2.76319
Ar 1.75345 1.928 5.49581
Ar -1.9512 2.09228 5.15818
Ar -1.94134 -1.72338 5.40284
Ar 2.02756 -1.77448 5.47317
Ar 1.72451 1.89354 -5.40184
Ar -2.10935 1.99567 -5.28482
Ar -1.83697 -1.82843 -5.31686
Ar 1.86441 -1.89004 -5.4707
38
Atoms. Timestep: 210000
Ar 1.8809 1.94851 -0.0851925
Ar 5.70235 2.08772 0.000478921
Ar 1.80268 5.66644 -0.0323622
Ar -1.89067 1.80041 0.0346013
Ar -5.62277 1.92589 -0.00873949
Ar -1.97569 5.54113 -0.0614812
Ar -1.92131 -1.84163 0.0661833
Ar -5.75652 -1.86639 0.0690405
Ar -1.95476 -5.76079 0.0951826
Ar 1.82525 -1.86368 -0.00722978
Ar 5.74737 -1.64558 -0.0533691
Ar 1.842 -5.71399 0.0436201
Ar 0.0712402 0.0215158 2.64529
Ar 3.74491 0.00985561 2.60912
Ar -3.80771 0.0558245 2.70358
Ar 0.0939757 3.7184 2.63484
Ar 0.00239447 -3.78263 2.67583
Ar 3.77023 3.78323 2.73558
Ar -3.78096 3.70736 2.70058
Ar -3.88136 -3.736 2.69592
Ar 3.83383 -3.80841 2.57855
Ar -0.0276989 0.0181524 -2.63163
Ar 3.75564 0.0860182 -2.64376
Ar -3.7177 -0.0720379 -2.69485
Ar -0.00657941 3.75981 -2.73187
Ar -0.0559404 -3.74811 -2.59216
Ar 3.79037 3.87845 -2.74232
Ar -3.73045 3.64919 -2.74947
Ar -3.84084 -3.83292 -2.5613
Ar 3.77074 -3.71954 -2.62324
Ar 1.93646 1.81551 5.32127
Ar -1.88 1.8774 5.3975
Ar -1.82129 -1.82276 5.25469
Ar 1.89419 -1.93724 5.31903
Ar 1.95827 1.85462 -5.37
Ar -1.80946 1.81429 -5.4542
Ar -1.84225 -1.98615 -5.30444
Ar 1.90315 -1.88087 -5.23326
38
Atoms. Timestep: 220000
Ar 1.87705 1.90712 -0.00735522
Ar 5.63103 1.81992 0.102056
Ar 1.89547 5.74162 -0.15558
Ar -1.77836 1.82768 0.0112283
Ar -5.72139 1.72932 0.142452
Ar -1.85023 5.69221 -0.053171
Ar -1.92527 -1.88953 -0.0431383
Ar -5.69534 -2.00685 0.171368
Ar -1.89533 -5.65194 -0.16642
Ar 1.83307 -1.85259 -0.104052
Ar 5.57257 -1.9239 0.0519735
Ar 1.84449 -5.71094 0.0184516
Ar 0.00233087 0.0147005 2.6279
Ar 3.70187 0.0622085 2.62851
Ar -3.68482 -0.0375708 2.69512
Ar 0.0679251 3.8073 2.68981
Ar -0.0494848 -3.73847 2.60994
Ar 3.80164 4.0002 2.62867
Ar -3.73668 3.72604 2.59005
Ar -3.74108 -3.85448 2.73388
Ar 3.61286 -3.75165 2.80004
Ar -0.0122077 0.00126284 -2.68223
Ar 3.76831 0.015544 -2.6262
Ar -3.96728 -0.125926 -2.70722
Ar -0.00695348 3.76128 -2.76175
Ar 0.0529816 -3.74292 -2.73497
Ar 3.7823 3.72399 -2.57321
Ar -3.77314 3.57335 -2.55999
Ar -3.83684 -3.84674 -2.6912
Ar 3.8318 -3.85136 -2.64447
Ar 2.04956 2.10503 5.41917
Ar -1.74483 1.90885 5.34944
Ar -1.85041 -1.81616 5.39899
Ar 1.87765 -1.7488 5.32745
Ar 1.85228 1.92715 -5.40803
Ar -1.88593 1.85173 -5.38505
Ar -1.81491 -1.82249 -5.38579
Ar 1.91732 -1.8232 -5.30667
38
Atoms. Timestep: 230000
Ar 1.80473 1.78933 0.0109854
Ar 5.47073 2.09628 0.0620535
Ar 2.0334 5.63346 -0.0742079
Ar -1.914 1.88148 -0.0688586
Ar -5.73044 1.91267 -0.104379
Ar -1.76124 5.73555 -0.0204079
Ar -1.8432 -1.90183 0.0339318
Ar -5.66672 -1.92443 0.0954537
Ar -1.81393 -5.64947 0.129041
Ar 1.91533 -1.96758 -0.0274269
Ar 5.80166 -1.85778 -0.0159791
Ar 1.98465 -5.74217 0.0177742
Ar -0.00349133 0.00394086 2.64916
Ar 3.77391 -0.108864 2.65075
Ar -3.78164 0.0532497 2.72027
Ar 0.00945285 3.74277 2.61157
Ar 0.048043 -3.72702 2.70303
Ar 3.68924 3.70439 2.81164
Ar -3.87349 3.80271 2.54191
Ar -3.70473 -3.69505 2.77973
Ar 3.95062 -3.86345 2.52444
Ar -0.0475938 -0.00310146 -2.64124
Ar 3.76802 -0.0495179 -2.6958
Ar -3.8219 -0.068132 -2.72323
Ar -0.00468703 3.76816 -2.66772
Ar 0.0519061 -3.81627 -2.68843
Ar 3.70674 3.73843 -2.76034
Ar -3.79654 3.89212 -2.69361
Ar -3.71487 -3.93953 -2.5642
Ar 3.80449 -3.74136 -2.68553
Ar 1.79804 1.85351 5.42145
Ar -1.92762 2.03807 5.3155
Ar -1.93333 -1.68561 5.43785
Ar 1.97123 -1.90234 5.3349
Ar 1.84881 1.81926 -5.28293
Ar -1.97636 1.94052 -5.37522
Ar -1.88767 -1.89587 -5.32348
Ar 1.77444 -1.86554 -5.43846
38
Atoms. Timestep: 240000
Ar 1.8276 1.88837 -0.0291033
Ar 5.60453 2.00355 -0.102906
Ar 1.87001 5.81429 -0.0758942
Ar -1.85505 1.94247 0.0292759
Ar -5.62711 1.67023 0.0303457
Ar -1.87317 5.58125 -0.0128592
Ar -1.91853 -1.83203 0.000192718
Ar -5.66716 -2.00647 0.0471585
Ar -2.13186 -5.61767 0.0363466
Ar 1.85542 -1.87477 0.0529567
Ar 5.87974 -1.75441 -0.173441
Ar 1.76716 -5.76905 0.117084
Ar -0.0597627 0.0359161 2.66252
Ar 3.85452 0.0426885 2.54168
Ar -3.82647 -0.0755259 2.72422
Ar 0.0359396 3.85846 2.61061
Ar -0.153384 -3.84624 2.65084
Ar 3.86605 3.83906 2.49954
Ar -3.85394 3.69369 2.56387
Ar -3.92577 -3.86424 2.91336
Ar 3.78526 -3.8046 2.46615
Ar 0.0604721 -0.00340453 -2.68473
Ar 3.70707 0.0748411 -2.58436
Ar -3.73906 -0.0189715 -2.66932
Ar -0.00769492 3.77247 -2.68882
Ar -0.00950256 -3.73708 -2.50299
Ar 3.73208 3.79806 -2.7123
Ar -3.7565 3.79962 -2.52981
Ar -3.7983 -3.72925 -2.73177
Ar 3.8735 -3.83154 -2.3856
Ar 1.94615 1.99764 5.32043
Ar -1.88522 1.84086 5.30411
Ar -1.88691 -1.91871 5.35769
Ar 1.9614 -1.91537 5.19112
Ar 1.97759 1.89684 -5.45648
Ar -1.79873 1.866 -5.32017
Ar -1.79056 -1.84396 -5.35278
Ar 1.96216 -1.97202 -5.10614
38
Atoms. Timestep: 250000
Ar 1.94804 1.88509 -0.00171009
Ar 5.64036 2.05549 0.0281803
Ar 2.07171 5.79778 -0.148663
Ar -1.81026 1.83944 0.0170052
Ar -5.76289 1.88224 0.138313
Ar -1.76263 5.77323 -0.198505
Ar -1.75693 -2.001 0.109807
Ar -5.7483 -2.02456 0.0700772
Ar -1.73784 -5.73615 -0.0319964
Ar 1.86551 -1.87436 0.015718
Ar 5.5559 -1.92146 0.130982
Ar 1.99337 -5.53733 -0.0809815
Ar 0.00109165 -0.0393164 2.68407
Ar 3.6448 0.0367577 2.67785
Ar -3.79061 -0.0606473 2.61196
Ar 0.178622 3.88321 2.62553
Ar 0.117615 -3.91496 2.60355
Ar 3.87784 3.8198 2.83588
Ar -3.63227 3.99935 2.48727
Ar -3.70366 -3.84537 2.63518
Ar 3.68289 -3.79244 2.84465
Ar 0.039714 -0.108848 -2.63293
Ar 3.87625 0.0160225 -2.7141
Ar -3.66419 -0.113725 -2.50522
Ar 0.0337924 3.79206 -2.63954
Ar -0.0968945 -3.79666 -2.75932
Ar 3.73605 3.71506 -2.82409
Ar -3.81606 3.73468 -2.61868
Ar -3.88737 -4.00631 -2.62981
Ar 3.84684 -3.67441 -2.69518
Ar 1.76712 1.93126 5.37758
Ar -2.02767 1.95716 5.22591
Ar -1.9196 -1.86975 5.22291
Ar 1.90231 -1.84835 5.41467
Ar 1.79739 1.93361 -5.31043
Ar -2.01153 1.78266 -5.22644
Ar -2.15598 -1.88429 -5.33575
Ar 1.70945 -1.78395 -5.40377
38
Atoms. Timestep: 260000
Ar 1.98869 1.91996 0.0366666
Ar 5.87059 1.69225 -0.0563701
Ar 2.01066 5.7144 -0.0747101
Ar -1.86691 1.89898 -0.149102
Ar -5.64053 1.58943 0.0215848
Ar -1.91693 5.74244 -0.07544
Ar -1.96812 -1.8051 0.0266208
Ar -5.64095 -2.0663 -0.113108
Ar -1.70328 -5.69982 0.0157868
Ar 1.86603 -1.8103 0.0431111
Ar 5.58827 -1.96371 -0.193473
Ar 2.07998 -5.51515 0.234607
Ar -0.0344997 0.0481911 2.63214