38
Atoms. Timestep: 0
Ar 1.668 1.873 0
Ar 5.651 1.903 0.003
Ar 1.878 5.656 -0.01
Ar -1.867 1.863 -0.007
Ar -5.65 1.873 -0.014
Ar -1.898 5.645 -0.014
Ar -1.857 -1.873 0
Ar -5.64 -1.903 -0.003
Ar -1.867 -5.656 0.01
Ar 1.878 -1.863 0.007
Ar 5.661 -1.873 0.014
Ar 1.909 -5.645 0.014
Ar 0.002 0.007 2.642
Ar 3.751 0.017 2.659
Ar -3.75 -0.003 2.646
Ar -0.008 3.756 2.646
Ar 0.012 -3.745 2.659
Ar 3.761 3.786 2.656
Ar -3.778 3.766 2.646
Ar -3.757 -3.773 2.663
Ar 3.781 -3.752 2.673
Ar 0.009 -0.007 -2.642
Ar 3.761 0.003 -2.646
Ar -3.74 -0.017 -2.659
Ar -0.002 3.746 -2.659
Ar 0.019 -3.756 -2.646
Ar 3.768 3.773 -2.663
Ar -3.771 3.752 -2.673
Ar -3.75 -3.786 -2.656
Ar 3.788 -3.766 -2.646
Ar 1.871 1.897 5.329
Ar -1.888 1.886 5.325
Ar -1.878 -1.873 5.332
Ar 1.881 -1.863 5.339
Ar 1.888 1.873 -5.332
Ar -1.871 1.863 -5.339
Ar -1.861 -1.897 -5.329
Ar 1.898 -1.886 -5.325
38
Atoms. Timestep: 10000
Ar 1.92731 1.85404 -0.00370174
Ar 5.69664 1.89972 0.035414
Ar 1.90209 5.74738 -0.0393685
Ar -1.85995 1.84651 -0.026734
Ar -5.671 1.86788 -0.0103861
Ar -1.89472 5.6516 -0.0245676
Ar -1.88329 -1.90039 -0.0232126
Ar -5.68666 -1.92907 -0.020992
Ar -1.8908 -5.75217 0.0207909
Ar 1.8891 -1.89246 0.0680602
Ar 5.62389 -1.8909 0.0491134
Ar 1.97175 -5.64073 -0.00622076
Ar -0.00557834 -0.0233213 2.54297
Ar 3.73198 0.0413182 2.69157
Ar -3.74793 0.0387493 2.62812
Ar -0.0446303 3.75972 2.58466
Ar 0.0331811 -3.78355 2.67961
Ar 3.72601 3.79687 2.63211
Ar -3.7613 3.7945 2.69891
Ar -3.72744 -3.72356 2.62795
Ar 3.82159 -3.77993 2.73019
Ar -0.0308769 0.0670435 -2.63898
Ar 3.72342 -0.0175865 -2.591
Ar -3.75537 -0.0547728 -2.66483
Ar -0.046705 3.7376 -2.63391
Ar 0.0250751 -3.71602 -2.61953
Ar 3.73215 3.75792 -2.65811
Ar -3.79406 3.7522 -2.62883
Ar -3.7915 -3.82 -2.68351
Ar 3.7819 -3.73228 -2.64593
Ar 1.86305 1.9401 5.29414
Ar -1.82081 1.84571 5.26498
Ar -1.9157 -1.8547 5.32825
Ar 1.90494 -1.92033 5.28148
Ar 1.87474 1.89689 -5.29821
Ar -1.93008 1.90466 -5.40512
Ar -1.86682 -1.89981 -5.28849
Ar 1.8984 -1.86783 -5.24669
38
Atoms. Timestep: 20000
Ar 1.89563 1.85123 -0.00859292
Ar 5.62783 1.84418 0.0528348
Ar 1.88823 5.63685 0.0031262
Ar -1.93227 1.77718 -0.0177528
Ar -5.75656 1.88504 0.00212046
Ar -1.82706 5.61006 -0.125892
Ar -1.84285 -1.85131 0.0292445
Ar -5.63964 -1.86877 0.0334013
Ar -1.83655 -5.61051 -0.0348327
Ar 1.85121 -1.83544 -0.00357512
Ar 5.5813 -1.93278 0.0463931
Ar 2.02192 -5.53161 0.0182714
Ar 0.0313192 0.030498 2.68976
Ar 3.67871 0.0117248 2.66536
Ar -3.7727 0.0461861 2.66832
Ar -0.0533807 3.69245 2.57404
Ar 0.00519804 -3.7562 2.6726
Ar 3.79377 3.81145 2.68228
Ar -3.79886 3.75566 2.58368
Ar -3.7492 -3.75008 2.67316
Ar 3.90442 -3.78046 2.79627
Ar -0.0459487 -0.0372701 -2.62872
Ar 3.77569 0.0199114 -2.68531
Ar -3.84652 -0.0841797 -2.65637
Ar 0.0427842 3.64781 -2.63408
Ar 0.0406604 -3.71116 -2.72137
Ar 3.89712 3.80844 -2.62737
Ar -3.8057 3.7427 -2.7368
Ar -3.79706 -3.77121 -2.66399
Ar 3.74742 -3.65876 -2.69414
Ar 1.86868 1.84824 5.45113
Ar -1.97264 1.9291 5.34023
Ar -1.77044 -1.83856 5.35034
Ar 1.90281 -1.92922 5.412
Ar 1.91688 1.96644 -5.42936
Ar -1.91282 1.78335 -5.34261
Ar -1.92798 -1.94721 -5.35497
Ar 1.81858 -1.80277 -5.37885
38
Atoms. Timestep: 30000
Ar 1.85504 1.85128 -0.0312152
Ar 5.63917 1.93375 -0.0492795
Ar 1.83267 5.6849 -0.148431
Ar -1.93252 1.89491 0.0376721
Ar -5.62335 1.85807 0.122915
Ar -1.97796 5.56761 0.0551877
Ar -1.85946 -1.83155 -0.0544336
Ar -5.71764 -1.86858 0.00156685
Ar -1.884 -5.63391 -0.0208307
Ar 1.87283 -1.84388 -0.0286442
Ar 5.6915 -1.84059 0.0509898
Ar 1.89847 -5.70968 0.0243808
Ar 0.0128785 0.00749653 2.62893
Ar 3.72787 0.0444756 2.65057
Ar -3.69913 -0.00254379 2.7302
Ar -0.0362272 3.76269 2.60919
Ar 0.00241376 -3.71358 2.65587
Ar 3.72638 3.84842 2.53124
Ar -3.8256 3.72536 2.72802
Ar -3.70279 -3.67636 2.5778
Ar 3.71249 -3.75824 2.64992
Ar 0.0528423 -0.0211587 -2.65327
Ar 3.80697 -0.023234 -2.60376
Ar -3.80305 0.0110626 -2.68563
Ar 0.0277267 3.69632 -2.63702
Ar 0.0166973 -3.73663 -2.63159
Ar 3.78963 3.79446 -2.70832
Ar -3.77466 3.795 -2.64412
Ar -3.76071 -3.72097 -2.67299
Ar 3.78867 -3.85334 -2.58648
Ar 1.82411 1.89732 5.31811
Ar -1.87259 1.82705 5.38547
Ar -1.88355 -1.91929 5.33623
Ar 1.884 -1.85839 5.36292
Ar 1.89762 1.83524 -5.31866
Ar -1.88344 1.82121 -5.33994
Ar -1.77096 -1.92424 -5.35581
Ar 1.94968 -1.91948 -5.28673
38
Atoms. Timestep: 40000
Ar 1.89429 1.89835 -0.0352496
Ar 5.62483 1.94917 0.04016
Ar 1.97271 5.66942 -0.0379582
Ar -1.84076 1.8989 -0.0121445
Ar -5.71203 1.85801 -0.023079
Ar -1.89026 5.66208 0.00702875
Ar -1.81391 -1.87093 0.0243579
Ar -5.66868 -1.83363 0.0510642
Ar -1.83371 -5.74291 0.0316622
Ar 1.86787 -1.89414 0.0247593
Ar 5.66468 -1.89771 0.0754767
Ar 1.90679 -5.67783 -0.00586043
Ar -0.00665465 0.0529827 2.6409
Ar 3.75568 0.0681648 2.67819
Ar -3.7585 0.0222012 2.67104
Ar -0.0518697 3.78985 2.62926
Ar -0.0213333 -3.80381 2.65239
Ar 3.69715 3.8376 2.6913
Ar -3.87551 3.71056 2.60882
Ar -3.74318 -3.80254 2.60836
Ar 3.793 -3.75084 2.61738
Ar -0.0230167 0.042883 -2.65789
Ar 3.77713 0.00752354 -2.62171
Ar -3.76853 -0.0314824 -2.67028
Ar 0.0512377 3.82376 -2.66259
Ar -0.0418469 -3.75241 -2.6448
Ar 3.83702 3.8453 -2.68193
Ar -3.68915 3.69138 -2.67403
Ar -3.74503 -3.88076 -2.55238
Ar 3.77137 -3.78607 -2.74274
Ar 1.87586 1.89529 5.3248
Ar -1.86338 1.90365 5.38667
Ar -1.88339 -1.87599 5.28328
Ar 1.86263 -1.84078 5.29234
Ar 1.86929 1.85716 -5.33212
Ar -1.88432 1.79235 -5.33769
Ar -1.88531 -1.99276 -5.30176
Ar 1.78087 -1.84098 -5.34501
38
Atoms. Timestep: 50000
Ar 1.88071 1.91698 0.0159881
Ar 5.67281 1.89461 0.0724
Ar 1.81981 5.64781 -0.0114829
Ar -1.86754 1.84706 -0.0416012
Ar -5.60929 1.82758 -0.0705645
Ar -1.91827 5.60658 0.0195759
Ar -1.86112 -1.85058 -0.0489986
Ar -5.576 -1.96676 0.02095
Ar -1.81164 -5.62634 -0.0156902
Ar 1.87206 -1.86479 0.0186934
Ar 5.61122 -1.94772 0.026643
Ar 1.87789 -5.65639 0.0561331
Ar 0.00988897 -0.00738981 2.64614
Ar 3.80665 0.0531405 2.69886
Ar -3.72027 -0.0371469 2.65308
Ar 0.0406092 3.73861 2.66381
Ar 0.0143278 -3.77589 2.70264
Ar 3.7933 3.85183 2.66815
Ar -3.75675 3.77924 2.6723
Ar -3.77583 -3.77609 2.74343
Ar 3.75909 -3.7156 2.68696
Ar -0.00744158 0.0731504 -2.6553
Ar 3.76004 -0.082954 -2.64536
Ar -3.76962 -0.0488388 -2.66628
Ar -0.0802745 3.8159 -2.7377
Ar 0.00486497 -3.69448 -2.66761
Ar 3.75972 3.79156 -2.69256
Ar -3.86433 3.79191 -2.74571
Ar -3.68352 -3.83512 -2.68035
Ar 3.68432 -3.89658 -2.66369
Ar 1.91732 1.89756 5.34126
Ar -1.83507 1.90727 5.33981
Ar -1.98007 -1.87713 5.42612
Ar 1.89646 -1.80843 5.35827
Ar 1.79305 1.91281 -5.41438
Ar -1.95681 1.86887 -5.33069
Ar -1.83953 -1.87534 -5.41627
Ar 1.94122 -1.87792 -5.32697
38
Atoms. Timestep: 60000
Ar 1.91504 1.83375 -0.0333556
Ar 5.69455 1.84777 -0.0165927
Ar 1.83651 5.66494 0.00651828
Ar -1.83857 1.90865 0.00518319
Ar -5.79193 1.89371 -0.0845923
Ar -1.94512 5.61908 -0.0308255
Ar -1.80825 -1.85061 0.0307884
Ar -5.62927 -1.83408 -0.0114807
Ar -1.84432 -5.71479 -0.0248156
Ar 1.86779 -1.9047 0.0505502
Ar 5.75167 -1.83574 0.0153945
Ar 1.96034 -5.68399 0.0395224
Ar -0.00461991 0.0256713 2.6404
Ar 3.72394 0.0188286 2.62042
Ar -3.76595 0.0501822 2.597
Ar -0.0294182 3.75512 2.5694
Ar 0.0988774 -3.78333 2.68452
Ar 3.8159 3.74506 2.6415
Ar -3.84213 3.8132 2.64745
Ar -3.7787 -3.77899 2.68422
Ar 3.90781 -3.72633 2.66309
Ar 0.061088 -0.0384524 -2.5805
Ar 3.77042 -0.015016 -2.65149
Ar -3.71257 0.0133795 -2.56363
Ar 0.0303766 3.73844 -2.63443
Ar -0.0089648 -3.78988 -2.61575
Ar 3.79416 3.83731 -2.69649
Ar -3.81317 3.78556 -2.66068
Ar -3.80774 -3.7948 -2.68281
Ar 3.70076 -3.76528 -2.58146
Ar 1.81483 1.91348 5.25941
Ar -1.90291 1.89529 5.29811
Ar -1.89823 -1.88606 5.3013
Ar 1.86385 -1.87747 5.35596
Ar 1.80072 1.88455 -5.37373
Ar -1.98659 1.8879 -5.26137
Ar -1.8757 -1.95323 -5.30806
Ar 1.87754 -1.89812 -5.29864
38
Atoms. Timestep: 70000
Ar 1.93745 1.98617 0.0601297
Ar 5.66645 1.98392 -0.0355905
Ar 2.01716 5.67727 -0.0524941
Ar -1.84117 1.83642 0.061186
Ar -5.61722 1.7622 -0.0568499
Ar -1.827 5.67741 0.0384072
Ar -1.90276 -1.90118 -0.0426233
Ar -5.6894 -1.96255 -0.0485787
Ar -1.89018 -5.75189 0.112146
Ar 1.89762 -1.79826 0.00642718
Ar 5.71592 -1.89421 -0.0173885
Ar 1.84647 -5.62045 -0.0104974
Ar -0.0530573 -0.00991839 2.64896
Ar 3.78527 0.043495 2.61696
Ar -3.83452 -0.0997852 2.64707
Ar 0.0150795 3.83932 2.60091
Ar -0.0251009 -3.72796 2.62458
Ar 3.77447 3.79106 2.62129
Ar -3.81769 3.71388 2.54537
Ar -3.80473 -3.75415 2.77437
Ar 3.78431 -3.75943 2.60277
Ar 0.0307548 -0.0359548 -2.57477
Ar 3.85214 0.108962 -2.69868
Ar -3.74529 -0.0217328 -2.70164
Ar -0.031151 3.74324 -2.54517
Ar 0.0264075 -3.84462 -2.67504
Ar 3.79311 3.80778 -2.74172
Ar -3.67945 3.82275 -2.63408
Ar -3.72549 -3.87094 -2.58245
Ar 3.78739 -3.69786 -2.6456
Ar 1.81973 1.83039 5.26384
Ar -1.88363 1.93163 5.26612
Ar -1.95982 -1.74767 5.46155
Ar 1.78492 -1.92858 5.35996
Ar 1.84902 1.89112 -5.27501
Ar -1.84629 1.76161 -5.28845
Ar -1.99405 -1.9689 -5.35492
Ar 1.78635 -1.81159 -5.33049
38
Atoms. Timestep: 80000
Ar 1.87925 1.91581 -0.055085
Ar 5.68702 1.92941 -0.00706425
Ar 1.84428 5.72944 -0.105528
Ar -1.95634 1.85192 0.0495165
Ar -5.6059 1.8664 0.0454733
Ar -1.87374 5.64256 0.00373319
Ar -1.821 -1.8992 -0.0155213
Ar -5.48176 -1.89569 -0.102747
Ar -1.92468 -5.64421 0.0834731
Ar 1.8533 -1.90801 0.00960529
Ar 5.59347 -1.84012 -0.0405983
Ar 1.90988 -5.70164 0.032742
Ar 0.0184169 0.0170993 2.64278
Ar 3.73008 0.000217653 2.65714
Ar -3.74415 0.0821803 2.72871
Ar 0.0178995 3.78774 2.69348
Ar -0.0759092 -3.77444 2.70645
Ar 3.64139 3.71652 2.64608
Ar -3.75073 3.80456 2.71116
Ar -3.79061 -3.73577 2.75133
Ar 3.84166 -3.75775 2.65766
Ar -0.0676564 0.00306514 -2.60878
Ar 3.65901 0.0274783 -2.64836
Ar -3.83191 -0.0286141 -2.69708
Ar -0.0380475 3.72893 -2.72378
Ar 0.0688325 -3.82618 -2.61167
Ar 3.79373 3.78798 -2.71682
Ar -3.75544 3.71934 -2.68614
Ar -3.67549 -3.80047 -2.84097
Ar 3.83929 -3.74754 -2.69054
Ar 1.87663 1.93128 5.38667
Ar -1.86763 1.93891 5.42614
Ar -1.8962 -1.86967 5.41888
Ar 1.84291 -1.9324 5.35479
Ar 1.78945 1.90017 -5.38889
Ar -1.98382 1.83331 -5.47594
Ar -1.74326 -1.84983 -5.35085
Ar 1.99978 -2.00177 -5.23945
38
Atoms. Timestep: 90000
Ar 1.85923 1.88203 0.0423431
Ar 5.58053 1.89856 -0.0121635
Ar 1.88666 5.72698 0.082421
Ar -1.93785 1.80541 0.0123251
Ar -5.65797 2.02674 0.039503
Ar -1.80885 5.5536 -0.169205
Ar -1.85745 -1.88826 0.0863649
Ar -5.65847 -1.91371 0.100787
Ar -1.81127 -5.77636 -0.129935
Ar 1.97238 -1.9128 -0.0242816
Ar 5.77215 -1.87278 -0.0158833
Ar 1.91389 -5.60356 -0.0419557
Ar -0.0909638 0.0494567 2.66999
Ar 3.70136 0.0636257 2.66277
Ar -3.84691 0.100603 2.76269
Ar 0.0388853 3.76797 2.59372
Ar 0.0597993 -3.74408 2.63982
Ar 3.74812 3.81983 2.71645
Ar -3.74691 3.92205 2.71343
Ar -3.6298 -3.86286 2.64941
Ar 3.89827 -3.76894 2.70202
Ar -0.00163591 0.00499003 -2.59274
Ar 3.82758 -0.0169413 -2.56717
Ar -3.76295 -0.100368 -2.59119
Ar -0.00274692 3.73334 -2.68266
Ar -0.0648212 -3.71054 -2.67836
Ar 3.71788 3.77358 -2.68561
Ar -3.76487 3.76335 -2.76815
Ar -3.82118 -3.7788 -2.7888
Ar 3.86068 -3.8874 -2.62471
Ar 1.76597 1.78283 5.30756
Ar -1.97349 1.94985 5.34538
Ar -1.86196 -1.77448 5.38487
Ar 1.8652 -1.89635 5.26797
Ar 1.72453 1.77683 -5.40587
Ar -2.0059 1.83095 -5.30275
Ar -1.8621 -1.86566 -5.40117
Ar 1.97699 -1.85771 -5.29722
38
Atoms. Timestep: 100000
Ar 1.87849 1.8523 0.00486013
Ar 5.7466 1.85309 -0.0186285
Ar 1.85487 5.67052 -0.0627034
Ar -1.88999 1.89109 -0.013781
Ar -5.71486 1.78072 0.0352001
Ar -1.97951 5.66952 -0.00358024
Ar -1.87247 -1.86377 -0.00770079
Ar -5.64538 -1.95841 0.051845
Ar -1.94766 -5.56364 0.0262808
Ar 1.90915 -1.87277 0.0261698
Ar 5.67861 -1.86277 -0.0055324
Ar 1.96295 -5.62915 -0.0669001
Ar 0.0220586 -0.00514188 2.6485
Ar 3.76181 0.0486255 2.64984
Ar -3.72254 -0.0710675 2.68571
Ar -0.0320747 3.76992 2.55373
Ar 0.0477565 -3.7741 2.64384
Ar 3.73166 3.79337 2.59913
Ar -3.81497 3.76891 2.60976
Ar -3.76433 -3.86484 2.81433
Ar 3.81767 -3.74116 2.69899
Ar 0.0454403 0.00232415 -2.63787
Ar 3.7972 -0.02326 -2.62236
Ar -3.71898 -0.00509055 -2.65985
Ar -0.0206244 3.74743 -2.69422
Ar 0.0208074 -3.72854 -2.64125
Ar 3.83076 3.76121 -2.59787
Ar -3.77184 3.67028 -2.6755
Ar -3.85124 -3.77407 -2.66695
Ar 3.81047 -3.75085 -2.65898
Ar 1.84365 1.92429 5.31948
Ar -1.92128 1.969 5.31982
Ar -1.90202 -1.84854 5.31071
Ar 1.85935 -1.87552 5.40996
Ar 1.89855 1.90374 -5.29063
Ar -1.89708 1.91065 -5.32802
Ar -1.90879 -1.9067 -5.3901
Ar 1.85979 -1.86659 -5.3657
38
Atoms. Timestep: 110000
Ar 1.861 1.90632 0.0090687
Ar 5.66285 2.01319 -0.0016841
Ar 1.85889 5.60703 -0.101554
Ar -1.87939 1.85481 0.0388465
Ar -5.69619 1.95309 -0.0147815
Ar -1.89112 5.62499 0.0691563
Ar -1.82181 -1.9025 0.0315647
Ar -5.61098 -1.89978 -0.0628849
Ar -1.92859 -5.7152 0.0330855
Ar 1.88799 -1.84004 0.0307826
Ar 5.69219 -1.7905 0.0537708
Ar 1.88345 -5.63092 0.0734662
Ar 0.0261719 0.0334699 2.66261
Ar 3.78995 0.0501882 2.62324
Ar -3.74674 -0.0830048 2.63619
Ar -0.0788542 3.75072 2.70272
Ar -0.0109835 -3.76055 2.62305
Ar 3.76561 3.93129 2.65706
Ar -3.79464 3.68765 2.70704
Ar -3.77373 -3.81087 2.60951
Ar 3.76077 -3.7818 2.71323
Ar -0.0432076 -0.0474477 -2.72003
Ar 3.73637 -0.0108241 -2.68081
Ar -3.73518 0.0689308 -2.60955
Ar 0.031153 3.67022 -2.70965
Ar 0.0173637 -3.78235 -2.64863
Ar 3.75233 3.71942 -2.7406
Ar -3.74671 3.80297 -2.62495
Ar -3.71512 -3.7417 -2.6158
Ar 3.81975 -3.74377 -2.57444
Ar 1.96142 1.95733 5.30491
Ar -1.86791 1.8074 5.37513
Ar -1.9017 -2.0169 5.38895
Ar 1.85407 -1.77248 5.39522
Ar 1.85535 1.84903 -5.43951
Ar -1.91593 1.88992 -5.4258
Ar -1.91476 -1.92823 -5.42026
Ar 1.85889 -1.91809 -5.34766
38
Atoms. Timestep: 120000
Ar 1.88012 1.88499 0.0466879
Ar 5.6079 1.8947 -0.0493123
Ar 1.87393 5.703 0.0880607
Ar -1.87057 1.82756 -0.0198793
Ar -5.6073 1.92838 -0.0254989
Ar -1.97014 5.63272 0.0612063
Ar -1.8069 -1.87225 0.00713742
Ar -5.59421 -1.85907 -0.105219
Ar -1.80156 -5.67445 0.100247
Ar 1.87051 -1.89943 0.0141253
Ar 5.63462 -1.85672 -0.0519628
Ar 1.992 -5.73841 -0.0236519
Ar -0.0305827 0.0389536 2.65418
Ar 3.79218 -0.0271939 2.6092
Ar -3.72208 0.0420982 2.65832
Ar -0.0322971 3.81396 2.64105
Ar 0.0882026 -3.74446 2.63502
Ar 3.80151 3.70704 2.63488
Ar -3.90525 3.82464 2.59875
Ar -3.80428 -3.82449 2.6335
Ar 3.78808 -3.8065 2.68043
Ar -0.0284253 -0.0179027 -2.6116
Ar 3.71475 -0.000924832 -2.62287
Ar -3.76776 -0.0442959 -2.70906
Ar 0.0233436 3.72836 -2.55991
Ar 0.0149004 -3.80443 -2.61526
Ar 3.70917 3.86351 -2.71864
Ar -3.7908 3.74306 -2.62981
Ar -3.69897 -3.82559 -2.56341
Ar 3.72687 -3.72071 -2.69803
Ar 1.87237 1.88234 5.28015
Ar -1.97105 1.98931 5.27048
Ar -1.83895 -1.78812 5.36771
Ar 1.90347 -1.85261 5.4141
Ar 1.8458 1.88551 -5.32577
Ar -1.84581 1.80418 -5.37021
Ar -1.86214 -1.95738 -5.32438
Ar 1.81133 -1.8784 -5.37074
38
Atoms. Timestep: 130000
Ar 1.85826 1.91267 -0.0205204
Ar 5.71361 1.88426 -0.0979759
Ar 1.82066 5.72859 0.0604987
Ar -1.8641 1.85279 0.00703743
Ar -5.74522 1.87751 -0.0602773
Ar -1.95632 5.60932 -0.0279734
Ar -1.86634 -1.91946 -0.0105462
Ar -5.6726 -1.81144 0.0108604
Ar -1.82415 -5.6523 0.0469005
Ar 1.88365 -1.91082 -0.00287856
Ar 5.62289 -1.9576 0.0366161
Ar 1.99147 -5.64521 0.0854992
Ar -0.0410176 -0.0128763 2.68302
Ar 3.70427 0.0127191 2.57729
Ar -3.7835 0.0705113 2.66544
Ar -0.0467623 3.78748 2.61189
Ar 0.0396914 -3.77704 2.64713
Ar 3.84064 3.76571 2.587
Ar -3.82208 3.74104 2.64353
Ar -3.80252 -3.7573 2.64678
Ar 3.86755 -3.79204 2.77122
Ar -0.0197039 -0.00491341 -2.64225
Ar 3.84448 -0.0301026 -2.65393
Ar -3.78972 -0.0131422 -2.64752
Ar -0.0360853 3.75956 -2.62077
Ar 0.105157 -3.80778 -2.59228
Ar 3.69521 3.78559 -2.63572
Ar -3.85368 3.70912 -2.74298
Ar -3.71583 -3.79915 -2.69807
Ar 3.8448 -3.78858 -2.71735
Ar 1.94505 1.88369 5.21128
Ar -1.82806 1.96801 5.37899
Ar -1.97786 -1.79476 5.29839
Ar 1.89845 -1.86187 5.3891
Ar 1.8663 1.91656 -5.23354
Ar -1.9014 1.8675 -5.29682
Ar -1.88077 -1.95788 -5.27786
Ar 1.88759 -1.83738 -5.37922
38
Atoms. Timestep: 140000
Ar 1.86553 1.98443 -0.0412239
Ar 5.55239 2.16438 0.0491326
Ar 1.83346 5.64192 -0.0783564
Ar -1.86041 1.90089 -0.103816
Ar -5.58694 2.13551 -0.113445
Ar -1.95195 5.59202 0.00956624
Ar -1.9249 -1.936 0.012293
Ar -5.66014 -1.97194 -0.00768159
Ar -1.89987 -5.79268 0.0449671
Ar 1.87759 -1.9071 0.0997028
Ar 5.74877 -1.72658 -0.012931
Ar 1.85677 -5.92737 0.157208
Ar -0.0555573 0.0289852 2.57965
Ar 3.71494 -0.0245317 2.5735
Ar -3.8127 0.0203635 2.55129
Ar -0.0998791 3.8033 2.6765
Ar -0.017783 -3.8187 2.64993
Ar 3.66737 3.94068 2.7656
Ar -3.77224 3.86348 2.67261
Ar -3.85237 -3.68683 2.77503
Ar 3.96573 -3.88549 2.40376
Ar 0.0695945 -0.051004 -2.55051
Ar 3.75016 0.0086361 -2.56962
Ar -3.82609 -0.033505 -2.65182
Ar -0.0289792 3.74954 -2.70089
Ar 0.0527567 -3.80447 -2.52936
Ar 3.89793 3.91242 -2.79175
Ar -3.72816 3.94451 -2.74426
Ar -3.65749 -4.06535 -2.6608
Ar 3.77408 -3.76065 -2.50745
Ar 1.81858 1.79329 5.21545
Ar -1.95971 1.9041 5.317
Ar -1.74385 -1.85721 5.3087
Ar 2.04205 -2.04307 5.174
Ar 1.85407 1.91598 -5.33003
Ar -1.87947 1.83473 -5.27115
Ar -1.8884 -1.92141 -5.18522
Ar 1.8671 -1.92428 -5.18555
38
Atoms. Timestep: 150000
Ar 1.86924 1.74792 0.0571858
Ar 5.57476 1.97583 -0.109773
Ar 1.9863 5.6495 -0.107769
Ar -1.87492 1.89043 0.165677
Ar -5.85401 1.6951 -0.0185098
Ar -1.8351 5.81138 -0.0599923
Ar -1.99682 -1.87801 0.0261512
Ar -5.603 -2.22854 0.0207045
Ar -1.88276 -5.57996 0.0115007
Ar 1.88924 -1.89358 0.069596
Ar 5.69506 -1.87948 0.0202395
Ar 1.96494 -5.80723 -0.0195254
Ar -0.0236208 0.0522649 2.67776
Ar 3.83155 0.038698 2.67158
Ar -3.81584 -0.0648421 2.59492
Ar 0.0217409 3.85043 2.64757
Ar 0.023141 -3.69788 2.58084
Ar 3.83578 3.76021 2.6846
Ar -3.88224 3.75362 2.56653
Ar -3.78603 -3.82947 2.73925
Ar 3.75991 -3.75987 2.653
Ar -0.0347299 -0.0827365 -2.60343
Ar 3.74738 -0.0886566 -2.61005
Ar -3.82113 -0.0223457 -2.62968
Ar 0.0588867 3.62881 -2.60909
Ar 0.117966 -3.69425 -2.60804
Ar 3.71391 3.54643 -2.69475
Ar -3.85784 3.74951 -2.5114
Ar -3.55827 -3.67267 -2.74218
Ar 3.90479 -3.78374 -2.66415
Ar 1.83637 2.0578 5.31832
Ar -1.93145 1.95822 5.23953
Ar -1.83965 -1.71981 5.26531
Ar 1.81903 -1.66986 5.39489
Ar 1.80219 1.82944 -5.33058
Ar -2.01194 2.01159 -5.22215
Ar -1.79905 -1.72172 -5.43604
Ar 1.95822 -1.93155 -5.42803
38
Atoms. Timestep: 160000
Ar 1.84746 1.90806 -0.0601068
Ar 5.59201 2.09596 0.0210938
Ar 1.93195 5.69579 -0.0857707
Ar -1.94597 1.98078 0.0863988
Ar -5.74578 1.95066 0.0458625
Ar -1.9849 5.71638 0.0667209
Ar -1.84939 -1.89706 0.0117109
Ar -5.67124 -1.93108 0.0283423
Ar -1.85107 -5.71474 0.0238775
Ar 1.83566 -1.95737 0.0746155
Ar 5.8173 -1.76825 -0.0184456
Ar 1.87052 -5.78251 0.0875396
Ar -0.036271 -0.00800894 2.67968
Ar 3.74733 -0.0163715 2.67363
Ar -3.86132 0.0112691 2.61468
Ar -0.0487557 3.91641 2.68959
Ar -0.0113047 -3.83678 2.79198
Ar 3.79041 3.82497 2.72468
Ar -3.8908 3.89415 2.6065
Ar -3.86728 -3.80053 2.68409
Ar 3.90569 -3.82528 2.53156
Ar 0.00545379 0.0149299 -2.6232
Ar 3.85154 -0.0153226 -2.56915
Ar -3.63396 -0.0498694 -2.54993
Ar -0.119989 3.75274 -2.724
Ar -0.0365036 -3.68519 -2.62372
Ar 3.87668 3.82756 -2.71145
Ar -3.89401 3.76011 -2.73538
Ar -3.7502 -3.75945 -2.67338
Ar 3.87795 -3.79222 -2.53892
Ar 1.82131 1.758 5.26298
Ar -1.91544 1.91111 5.12986
Ar -1.83275 -1.80273 5.29515
Ar 2.07161 -2.069 5.28025
Ar 1.93097 1.83877 -5.38479
Ar -1.85802 1.72313 -5.3464
Ar -1.86444 -1.96976 -5.50986
Ar 1.89753 -1.89825 -5.25628
38
Atoms. Timestep: 170000
Ar 1.89808 1.86665 -0.00697061
Ar 5.74087 1.99958 -0.0691061
Ar 2.00936 5.65119 0.00103788
Ar -1.90871 1.97784 0.021047
Ar -5.86778 1.9034 -0.0784808
Ar -1.81266 5.73285 0.101268
Ar -1.91414 -1.9242 0.0347134
Ar -5.67843 -1.98721 -0.0219409
Ar -1.86547 -5.73463 0.0199708
Ar 1.9058 -1.85394 0.131574
Ar 5.72572 -1.83506 0.124974
Ar 1.95486 -5.62303 -0.0131284
Ar -0.0119618 -0.0546282 2.6221
Ar 3.90495 -0.0668237 2.68999
Ar -3.73746 -0.010355 2.66581
Ar -0.101124 3.82076 2.64107
Ar -0.00786163 -3.79335 2.59657
Ar 3.84039 3.72586 2.6855
Ar -3.87495 3.88921 2.58426
Ar -3.77491 -3.76925 2.62005
Ar 3.80259 -3.8984 2.88148
Ar -0.0654065 0.0197167 -2.5414
Ar 3.87591 0.0017393 -2.78309
Ar -3.77069 -0.0307277 -2.61079
Ar -0.0740853 3.79561 -2.6575
Ar 0.0950766 -3.75236 -2.58879
Ar 3.7064 3.74401 -2.80552
Ar -3.8266 3.77052 -2.7253
Ar -3.70827 -3.87274 -2.7343
Ar 3.80081 -3.64521 -2.59849
Ar 1.90286 1.86675 5.22209
Ar -1.96234 1.89566 5.30405
Ar -1.88077 -1.90126 5.4047
Ar 1.82553 -1.84896 5.32567
Ar 1.82037 1.84255 -5.33305
Ar -2.04036 1.9049 -5.37629
Ar -1.91153 -1.85833 -5.3262
Ar 1.98793 -1.94734 -5.40759
38
Atoms. Timestep: 180000
Ar 1.89086 1.86515 0.091698
Ar 5.67547 1.97244 0.0351293
Ar 1.91889 5.75594 0.107907
Ar -1.85206 1.85295 0.0358758
Ar -5.66322 1.92596 0.0280657
Ar -1.87968 5.65 -0.0517235
Ar -1.92311 -1.81937 0.0213808
Ar -5.74842 -1.97581 0.0953266
Ar -1.95997 -5.67228 0.0456534
Ar 1.88979 -1.82361 0.0154107
Ar 5.70902 -1.69547 -0.113209
Ar 1.92634 -5.84694 -0.0602981
Ar 0.0330086 -0.0409801 2.63939
Ar 3.90873 -0.0102546 2.69847
Ar -3.73384 0.0246161 2.60009
Ar -0.0707225 3.78092 2.71316
Ar 0.0420077 -3.73874 2.6082
Ar 3.69284 3.7032 2.74377
Ar -3.83372 3.87761 2.58466
Ar -3.67931 -3.75752 2.7307
Ar 3.76298 -3.77697 2.53536
Ar -0.0494736 0.0397222 -2.57108
Ar 3.78272 0.117105 -2.73001
Ar -3.70549 0.0282251 -2.61913
Ar 0.00729374 3.68434 -2.6559
Ar 0.0608404 -3.71272 -2.66737
Ar 3.6765 3.90873 -2.73622
Ar -3.80636 3.74196 -2.68483
Ar -3.75857 -3.70325 -2.65556
Ar 3.81024 -3.8671 -2.50857
Ar 1.73947 1.78097 5.45816
Ar -2.04227 1.9743 5.21514
Ar -1.81079 -1.82601 5.32863
Ar 1.92824 -1.91143 5.31294
Ar 1.86326 1.75076 -5.42435
Ar -1.81929 1.70891 -5.39817
Ar -1.90838 -1.95258 -5.41928
Ar 1.92819 -2.01176 -5.34941
38
Atoms. Timestep: 190000
Ar 1.84457 1.90336 0.0277211
Ar 5.71926 2.06745 0.00452881
Ar 1.97603 5.61297 -0.187443
Ar -1.94394 1.87568 -0.026684
Ar -5.76808 1.88384 0.0148048
Ar -1.65689 5.56132 -0.0137521
Ar -1.68558 -1.92977 0.0140782
Ar -5.64324 -2.01174 -0.085526
Ar -1.93793 -5.62162 0.0438825
Ar 1.88029 -1.87612 0.0508285
Ar 5.68557 -1.70325 0.00788535
Ar 1.87833 -5.69791 0.121886
Ar -0.00811796 -0.029276 2.61639
Ar 3.61753 -0.0568628 2.64634
Ar -3.85934 -0.0102726 2.65366
Ar 0.00522169 3.65586 2.78873
Ar 0.0127147 -3.81943 2.7524
Ar 3.74859 3.89299 2.66741
Ar -3.92581 3.68448 2.75073
Ar -3.82743 -3.73239 2.77178
Ar 3.93719 -3.75602 2.59094
Ar 0.110088 0.0761663 -2.66848
Ar 3.69869 -0.020609 -2.68264
Ar -3.66812 0.0177716 -2.67323
Ar -0.0792162 3.70826 -2.73645
Ar -0.0150687 -3.75509 -2.61715
Ar 3.74906 3.67889 -2.81391
Ar -3.86458 3.7441 -2.55336
Ar -3.76052 -3.75578 -2.69617
Ar 3.73568 -3.80172 -2.5005
Ar 1.91719 1.7987 5.34479
Ar -1.84856 1.91039 5.38425
Ar -1.90422 -1.86758 5.42632
Ar 1.81043 -1.9506 5.32938
Ar 1.90307 1.91568 -5.4582
Ar -2.01983 2.02582 -5.54259
Ar -1.81604 -1.74111 -5.4017
Ar 2.00501 -1.87557 -5.35095
38
Atoms. Timestep: 200000
Ar 1.83143 1.85793 -0.0389714
Ar 5.6387 1.97309 0.0769272
Ar 1.9286 5.648 0.0458664
Ar -1.83785 1.86408 -0.0332833
Ar -5.625 1.8324 -0.0012182
Ar -1.86464 5.76228 0.00471301
Ar -1.91751 -1.90688 0.0108454
Ar -5.6316 -1.88459 0.130421
Ar -1.85325 -5.68312 0.0451891
Ar 1.79232 -1.84593 0.0420314
Ar 5.59368 -1.82475 -0.0318635
Ar 1.87335 -5.71649 0.0494387
Ar -0.000747717 0.0235226 2.67496
Ar 3.77127 0.0123109 2.6534
Ar -3.67885 -0.0172664 2.65621
Ar -0.0414816 3.68268 2.61681
Ar 0.0405548 -3.66065 2.69925
Ar 3.74988 3.70766 2.71615
Ar -3.74115 3.79721 2.6312
Ar -3.66507 -3.86817 2.71508
Ar 3.83835 -3.84248 2.57447
Ar -0.139052 0.0315738 -2.70216
Ar 3.69803 0.0131684 -2.62376
Ar -3.80939 -0.120486 -2.71724
Ar -0.0163099 3.78613 -2.679
Ar -0.00333779 -3.68886 -2.64325
Ar 3.77419 3.82193 -2.58234
Ar -3.70354 3.81203 -2.67012
Ar -3.74427 -3.86756 -2.81019
Ar 3.67692 -3.83353 -2.63108
Ar 1.8318 1.96278 5.32749
Ar -1.89804 1.8763 5.32775
Ar -1.83632 -1.94911 5.46668
Ar 1.92825 -1.78054 5.31323
Ar 1.88126 1.86646 -5.3008
Ar -1.90613 1.93314 -5.44005
Ar -1.86352 -1.83797 -5.53412
Ar 1.93048 -1.9353 -5.33866
38
Atoms. Timestep: 210000
Ar 1.80232 1.83772 0.0308614
Ar 5.52841 1.86584 -0.019072
Ar 1.91461 5.5806 0.0303648
Ar -1.8727 1.87232 0.0132112
Ar -5.7381 1.85069 -0.0255024
Ar -1.8705 5.63608 0.00049062
Ar -1.75825 -1.76248 0.00128615
Ar -5.68054 -1.96017 0.0528154
Ar -1.81839 -5.73891 -0.0334648
Ar 1.92835 -1.84812 0.0266569
Ar 5.72282 -1.79813 0.01781
Ar 1.90804 -5.6752 -0.057773
Ar 0.0107001 -0.00182483 2.66319
Ar 3.73551 0.0419036 2.61549
Ar -3.75199 -0.0698821 2.59132
Ar 0.0375563 3.79189 2.63576
Ar -0.062353 -3.74187 2.62278
Ar 3.80602 3.74204 2.70235
Ar -3.77286 3.73055 2.5638
Ar -3.74858 -3.86773 2.69533
Ar 3.70065 -3.71661 2.6384
Ar 0.000838372 0.0109828 -2.64221
Ar 3.69808 0.0168705 -2.60311
Ar -3.74325 0.0222365 -2.6619
Ar 0.00734044 3.72782 -2.57337
Ar 0.0863595 -3.73219 -2.59998
Ar 3.78571 3.71693 -2.6859
Ar -3.80233 3.79335 -2.60572
Ar -3.66318 -3.64745 -2.57251
Ar 3.90851 -3.70334 -2.60403
Ar 1.95057 1.86112 5.27422
Ar -1.86765 1.91553 5.30626
Ar -1.95104 -1.85578 5.26468
Ar 1.80994 -1.89551 5.31751
Ar 1.74192 1.84384 -5.30985
Ar -1.95415 1.94068 -5.32556
Ar -1.91388 -1.81645 -5.36443
Ar 1.8875 -1.96634 -5.38018
38
Atoms. Timestep: 220000
Ar 1.89461 1.8877 0.0140926
Ar 5.71286 1.93073 0.0769681
Ar 1.79714 5.61779 -0.0313669
Ar -1.90011 1.88097 -0.00337503
Ar -5.6589 1.87722 -0.00381055
Ar -1.96695 5.61331 0.0207246
Ar -1.87852 -1.85085 0.0513235
Ar -5.59531 -1.9564 -0.0204614
Ar -1.90137 -5.52748 0.0401809
Ar 1.85693 -1.86854 0.0100832
Ar 5.61081 -1.80185 -0.0708843
Ar 1.80731 -5.63386 -0.0479513
Ar -0.0641566 -0.00997175 2.6886
Ar 3.78734 0.00381342 2.62195
Ar -3.82555 -0.0201387 2.64611
Ar -0.0403875 3.80004 2.6518
Ar 0.0392368 -3.7684 2.66493
Ar 3.78299 3.85158 2.66698
Ar -3.81394 3.76259 2.6701
Ar -3.75467 -3.75899 2.82747
Ar 3.78222 -3.82699 2.56853
Ar 0.0138032 -0.0732505 -2.5967
Ar 3.76187 0.0277916 -2.67278
Ar -3.66984 -0.0232408 -2.68764
Ar 0.00580292 3.68373 -2.62186
Ar 0.0204836 -3.70437 -2.65636
Ar 3.73919 3.75376 -2.61232
Ar -3.75971 3.77716 -2.68893
Ar -3.74658 -3.77772 -2.68331
Ar 3.75228 -3.71797 -2.71894
Ar 1.91384 1.89007 5.29043
Ar -1.90408 1.83198 5.27766
Ar -1.88046 -1.90099 5.37376
Ar 1.93147 -1.93571 5.31842
Ar 1.8532 1.88009 -5.27872
Ar -1.89631 1.88336 -5.34769
Ar -1.79456 -1.86846 -5.35407
Ar 1.99002 -1.92748 -5.38293
38
Atoms. Timestep: 230000
Ar 1.8886 1.95824 0.0438604
Ar 5.72059 2.01338 -0.00989952
Ar 1.92097 5.63651 0.050857
Ar -1.827 1.86766 0.0109231
Ar -5.66319 1.89533 0.0396343
Ar -1.88442 5.59105 -0.0613703
Ar -1.9148 -1.88613 0.0460537
Ar -5.63313 -1.85614 -0.0391297
Ar -1.86087 -5.66788 0.0133286
Ar 1.86642 -1.81099 -0.038623
Ar 5.63635 -1.90366 -0.0378916
Ar 1.96431 -5.59472 0.00394951
Ar 0.0187654 -0.0240133 2.66256
Ar 3.71812 -0.00218428 2.62338
Ar -3.763 0.00895013 2.64895
Ar -0.0287379 3.80924 2.71127
Ar 0.0568244 -3.71495 2.6447
Ar 3.75893 3.71238 2.78589
Ar -3.7725 3.79539 2.63291
Ar -3.774 -3.80889 2.62512
Ar 3.81857 -3.75167 2.68648
Ar -0.0232981 0.00819692 -2.67844
Ar 3.78582 0.0400936 -2.69614
Ar -3.70687 -0.0173391 -2.60939
Ar -0.035761 3.70984 -2.65739
Ar 0.00925658 -3.73363 -2.58227
Ar 3.76743 3.79435 -2.62931
Ar -3.80028 3.68495 -2.6723
Ar -3.77049 -3.8033 -2.71842
Ar 3.70293 -3.77625 -2.72129
Ar 1.82647 1.83682 5.37813
Ar -1.92443 1.88266 5.26945
Ar -1.85662 -1.88282 5.29029
Ar 1.90587 -1.89824 5.38295
Ar 1.83823 1.93893 -5.358
Ar -1.91931 1.85877 -5.29986
Ar -1.88245 -1.99585 -5.42564
Ar 1.83871 -1.9131 -5.31529
38
Atoms. Timestep: 240000
Ar 1.93785 1.85457 -0.027597
Ar 5.7417 1.96946 -0.0572849
Ar 1.87498 5.70668 0.0777324
Ar -1.86176 1.88528 -0.0116698
Ar -5.74511 1.84441 0.084864
Ar -1.92352 5.67307 0.0148373
Ar -1.86128 -1.85607 0.0149207
Ar -5.65465 -1.88405 0.00982173
Ar -1.82409 -5.67608 -0.0749356
Ar 1.89997 -1.86954 0.0255395
Ar 5.71225 -1.93433 0.0233938
Ar 1.98105 -5.73085 0.00346566
Ar -0.0468446 0.0366695 2.59198
Ar 3.76743 -0.0249948 2.61247
Ar -3.76697 0.00777156 2.60975
Ar -0.00465238 3.76642 2.73854
Ar 0.046882 -3.79487 2.66205
Ar 3.82231 3.86213 2.61007
Ar -3.80895 3.76691 2.66313
Ar -3.76267 -3.8308 2.64388
Ar 3.79665 -3.73464 2.68603
Ar 0.0112436 0.0168851 -2.67251
Ar 3.71902 -0.0642677 -2.6607
Ar -3.76383 0.0698089 -2.62916
Ar -0.0177821 3.76912 -2.64421
Ar 0.0938689 -3.73243 -2.64287
Ar 3.73073 3.78353 -2.75835
Ar -3.84713 3.76574 -2.57465
Ar -3.80912 -3.76182 -2.66131
Ar 3.79843 -3.81658 -2.60331
Ar 1.88258 1.83077 5.28128
Ar -2.01624 1.81495 5.36202
Ar -1.96565 -1.8745 5.29097
Ar 1.81753 -1.81529 5.40015
Ar 1.92926 1.91263 -5.36198
Ar -1.93181 1.90269 -5.3358
Ar -1.85871 -1.88023 -5.31669
Ar 1.90904 -1.95718 -5.37388
38
Atoms. Timestep: 250000
Ar 1.90225 1.90415 0.0224644
Ar 5.60894 1.82823 -0.0015478
Ar 1.7963 5.91048 -0.1223
Ar -1.86748 1.84946 0.0110598
Ar -5.64346 1.81948 -0.0546992
Ar -2.0473 5.60881 0.0490798
Ar -1.7999 -1.91948 -0.0376351
Ar -5.58669 -1.91996 0.0117137
Ar -1.94428 -5.62323 0.0123838
Ar 1.91286 -1.90629 -0.000170261
Ar 5.71451 -1.90347 0.0572705
Ar 1.79704 -5.72715 -0.0585019
Ar 0.00332496 0.0241855 2.70582
Ar 3.74221 -0.0610047 2.64872
Ar -3.77057 -0.0378212 2.63649
Ar -0.0342211 3.80826 2.64831
Ar -0.0150553 -3.78089 2.73924
Ar 3.70037 3.78342 2.56702
Ar -3.87557 3.65688 2.62836
Ar -3.74561 -3.72964 2.71269
Ar 3.77239 -3.83708 2.69249
Ar -0.00104474 0.0498845 -2.65111
Ar 3.78208 -0.0511317 -2.68921
Ar -3.7317 -0.0441925 -2.68746
Ar -0.0016641 3.84117 -2.6644
Ar 0.085217 -3.72433 -2.64769
Ar 3.84558 3.87045 -2.62267
Ar -3.89623 3.82063 -2.60158
Ar -3.75238 -3.77499 -2.66541
Ar 3.813 -3.76998 -2.64449
Ar 1.965 1.91441 5.34294
Ar -1.77192 1.82688 5.33352
Ar -1.92387 -1.84019 5.46444
Ar 1.91192 -1.92684 5.33262
Ar 1.9532 1.92559 -5.3086
Ar -1.79925 1.89994 -5.3433
Ar -1.89255 -1.9404 -5.3883
Ar 1.79657 -1.82323 -5.42755
38
Atoms. Timestep: 260000
Ar 1.95322 1.93181 0.0387579
Ar 5.63403 2.02254 0.174397
Ar 1.91731 5.78086 -0.00406396
Ar -1.79165 1.84332 -0.0509114
Ar -5.59604 1.87284 0.00838546
Ar -1.91704 5.6561 -0.09293
Ar -1.90182 -1.84118 -0.0786038
Ar -5.7244 -1.79681 -0.0356195
Ar -1.8512 -5.7363 -0.0217739
Ar 1.91566 -1.86426 -0.000341322
Ar 5.59702 -1.81707 0.0823881
Ar 2.02317 -5.7409 -0.0320247
Ar 0.00908 -0.0306349 2.58988
Ar 3.82533 0.0680547 2.71927
Ar -3.81323 0.0333949 2.69995
Ar 0.0817538 3.75508 2.66578