38
Atoms. Timestep: 0
Ar 1.668 1.873 0
Ar 5.651 1.903 0.003
Ar 1.878 5.656 -0.01
Ar -1.867 1.863 -0.007
Ar -5.65 1.873 -0.014
Ar -1.898 5.645 -0.014
Ar -1.857 -1.873 0
Ar -5.64 -1.903 -0.003
Ar -1.867 -5.656 0.01
Ar 1.878 -1.863 0.007
Ar 5.661 -1.873 0.014
Ar 1.909 -5.645 0.014
Ar 0.002 0.007 2.642
Ar 3.751 0.017 2.659
Ar -3.75 -0.003 2.646
Ar -0.008 3.756 2.646
Ar 0.012 -3.745 2.659
Ar 3.761 3.786 2.656
Ar -3.778 3.766 2.646
Ar -3.757 -3.773 2.663
Ar 3.781 -3.752 2.673
Ar 0.009 -0.007 -2.642
Ar 3.761 0.003 -2.646
Ar -3.74 -0.017 -2.659
Ar -0.002 3.746 -2.659
Ar 0.019 -3.756 -2.646
Ar 3.768 3.773 -2.663
Ar -3.771 3.752 -2.673
Ar -3.75 -3.786 -2.656
Ar 3.788 -3.766 -2.646
Ar 1.871 1.897 5.329
Ar -1.888 1.886 5.325
Ar -1.878 -1.873 5.332
Ar 1.881 -1.863 5.339
Ar 1.888 1.873 -5.332
Ar -1.871 1.863 -5.339
Ar -1.861 -1.897 -5.329
Ar 1.898 -1.886 -5.325
38
Atoms. Timestep: 10000
Ar 1.84201 1.88933 0.0953536
Ar 5.74176 1.8212 0.102105
Ar 1.78751 5.66596 -0.0736544
Ar -1.94874 1.934 -0.0868144
Ar -5.80693 1.94142 -0.0355802
Ar -1.87887 5.59298 0.0113013
Ar -1.86486 -1.9419 -0.0443735
Ar -5.65982 -1.79906 0.0367476
Ar -1.73032 -5.66271 -0.0539625
Ar 2.02443 -1.89813 0.0461111
Ar 5.80154 -2.05105 -0.141864
Ar 2.10485 -5.64027 0.121686
Ar -0.0617411 0.041264 2.75104
Ar 3.87478 -0.0795321 2.79536
Ar -3.7719 0.0453549 2.72656
Ar -0.000163511 3.72678 2.65315
Ar 0.0737415 -3.64969 2.63866
Ar 3.79181 3.72117 2.60302
Ar -3.82952 3.83508 2.65443
Ar -3.77697 -3.81088 2.55405
Ar 3.99571 -3.80812 2.70028
Ar 0.00249243 0.0293649 -2.55019
Ar 3.78722 0.112439 -2.5597
Ar -3.82128 -0.0424093 -2.6707
Ar -0.0440648 3.8036 -2.64658
Ar -0.120265 -3.88406 -2.78027
Ar 3.80705 3.76075 -2.53987
Ar -3.8247 3.75116 -2.83933
Ar -3.85566 -3.77903 -2.50566
Ar 3.75532 -3.71129 -2.85607
Ar 1.82775 1.99882 5.44732
Ar -1.93194 1.88558 5.38722
Ar -1.96615 -1.84103 5.31543
Ar 1.80662 -1.70475 5.37609
Ar 1.99569 1.78669 -5.43605
Ar -1.82818 1.76212 -5.47692
Ar -2.0322 -1.95444 -5.45362
Ar 1.73599 -1.84569 -5.26474
38
Atoms. Timestep: 20000
Ar 1.88121 1.92544 0.0138612
Ar 5.60845 1.94433 -0.0849332
Ar 1.62987 5.62891 -0.0500103
Ar -1.87723 1.91262 -0.0149438
Ar -5.58966 2.12641 -0.0589982
Ar -2.13643 5.7751 -0.110219
Ar -1.8812 -1.96378 0.0179233
Ar -5.6696 -1.73633 0.085139
Ar -1.84912 -5.89805 -0.00684467
Ar 2.00482 -1.83004 0.066194
Ar 5.65657 -1.85605 -0.0428964
Ar 1.83917 -5.58661 -0.0288665
Ar 0.0816874 -0.0101258 2.57451
Ar 3.79742 -0.020769 2.6151
Ar -3.83549 0.0973857 2.71708
Ar 0.091555 3.71734 2.66988
Ar -0.0271114 -3.79316 2.59991
Ar 3.86153 3.96825 2.56924
Ar -3.73268 3.85807 2.79538
Ar -3.79199 -3.94706 2.59282
Ar 3.76555 -3.88278 2.71016
Ar 0.0924648 -0.107376 -2.62293
Ar 3.85667 0.0910366 -2.60399
Ar -3.71412 -0.0265079 -2.64092
Ar -0.0721573 3.71602 -2.74233
Ar -0.0924922 -3.77647 -2.56614
Ar 3.70473 3.93395 -2.64223
Ar -3.84238 3.74986 -2.89032
Ar -3.79254 -3.69936 -2.55043
Ar 3.84481 -3.80079 -2.57669
Ar 2.0303 1.89585 5.27666
Ar -1.79099 1.89371 5.17197
Ar -2.01024 -2.02202 5.39914
Ar 1.86009 -1.97171 5.35123
Ar 1.96519 1.83838 -5.24344
Ar -1.77225 1.79042 -5.33805
Ar -1.948 -1.97225 -5.22584
Ar 1.85556 -1.96084 -5.18519
38
Atoms. Timestep: 30000
Ar 1.98819 1.79353 0.0079684
Ar 5.88314 1.69881 -0.105936
Ar 2.11676 5.69432 -0.0132261
Ar -1.91823 1.96412 0.130778
Ar -5.87556 1.86197 -0.0142581
Ar -1.71098 5.97435 -0.0511024
Ar -1.82493 -2.01075 0.0400251
Ar -5.78667 -2.28978 0.0536265
Ar -1.91466 -5.76882 0.205179
Ar 1.98627 -1.84347 -0.0884436
Ar 5.65575 -2.03481 -0.163281
Ar 2.05255 -5.57127 -0.099088
Ar -0.0908415 -0.00429141 2.60285
Ar 3.79284 -0.0718948 2.67094
Ar -3.90362 -0.0436789 2.45815
Ar 0.0192635 4.03111 2.66405
Ar 0.127163 -3.68187 2.8097
Ar 3.72444 3.75354 2.75752
Ar -3.99006 3.9585 2.34126
Ar -3.83761 -3.71558 2.72459
Ar 3.7424 -3.86521 2.56421
Ar -0.0260051 -0.0643091 -2.49891
Ar 3.92026 0.0356954 -2.71547
Ar -3.68319 -0.127644 -2.45382
Ar -0.00704156 3.81616 -2.52411
Ar 0.0316311 -3.93118 -2.6694
Ar 3.93615 3.84974 -2.55976
Ar -3.80087 3.73935 -2.51825
Ar -3.73165 -3.95927 -2.61918
Ar 3.84966 -3.7139 -2.93201
Ar 1.73683 1.89277 5.29997
Ar -2.07275 2.13155 4.89767
Ar -1.82924 -1.91651 5.24751
Ar 1.87878 -1.76661 5.44939
Ar 1.71681 2.08868 -5.27162
Ar -1.89326 1.81221 -5.06106
Ar -2.04403 -2.02107 -5.1938
Ar 1.78432 -1.69349 -5.37265
38
Atoms. Timestep: 40000
Ar 1.93244 1.90365 0.0361772
Ar 5.87575 2.07712 -0.186106
Ar 2.02198 5.72174 -0.024454
Ar -1.87472 1.89182 0.0753405
Ar -5.8472 1.82378 0.0723017
Ar -1.82007 5.76743 -0.0249644
Ar -1.85374 -2.02876 -0.00131754
Ar -5.62063 -2.04367 0.0283575
Ar -2.15331 -5.90325 -0.236573
Ar 1.89655 -1.82536 0.0956672
Ar 5.75953 -1.77929 0.129702
Ar 1.7812 -5.84094 0.0648865
Ar -0.0581508 -0.0687061 2.6041
Ar 3.85432 -0.0372552 2.71151
Ar -3.6869 -0.0773165 2.55556
Ar 0.0729716 3.80465 2.6549
Ar -0.0257487 -3.76385 2.72252
Ar 3.84464 3.83238 2.65311
Ar -3.7428 3.93632 2.57698
Ar -3.76606 -3.88466 2.75347
Ar 3.74026 -3.72797 2.71525
Ar -0.070657 -0.232101 -2.58801
Ar 3.7057 0.0929453 -2.69319
Ar -3.79488 0.0877364 -2.52587
Ar -0.062157 3.55597 -2.60906
Ar 0.0162554 -3.86239 -2.69585
Ar 3.6829 3.7327 -2.78174
Ar -3.90349 3.85251 -2.6034
Ar -3.70841 -3.59256 -2.83702
Ar 3.8758 -3.59038 -2.51397
Ar 1.92901 1.8996 5.18754
Ar -1.93593 2.01992 5.13934
Ar -1.79379 -1.77621 5.42072
Ar 1.92678 -1.91097 5.33468
Ar 1.77899 1.86499 -5.42684
Ar -2.01984 1.80181 -5.1982
Ar -1.90332 -1.75982 -5.34757
Ar 1.94873 -1.9606 -5.23798
38
Atoms. Timestep: 50000
Ar 2.0172 2.1253 -0.107373
Ar 5.5732 2.16241 -0.113423
Ar 2.0045 5.6428 0.159983
Ar -2.00987 1.7872 -0.0726977
Ar -5.77361 1.85233 0.0860195
Ar -1.63557 5.58994 0.00570117
Ar -2.10193 -1.80715 0.271104
Ar -5.69658 -2.10432 -0.0880175
Ar -2.33485 -5.36089 0.309149
Ar 1.75924 -1.90194 -0.100818
Ar 5.96654 -1.57419 -0.145077
Ar 1.45692 -5.70162 0.240331
Ar 0.124945 -0.0547448 2.53606
Ar 3.90054 0.0498436 2.53762
Ar -4.14119 0.0855365 2.67947
Ar 0.012112 3.6308 2.61545
Ar 0.0648863 -3.79676 3.00522
Ar 3.76505 3.63419 3.07323
Ar -3.69083 3.79347 2.58289
Ar -3.92092 -3.57889 2.9398
Ar 3.96562 -3.75949 2.23301
Ar -0.109209 -0.0842434 -2.64912
Ar 3.69205 0.0759261 -2.75008
Ar -3.74337 -0.0618301 -2.72002
Ar 0.13155 3.60045 -2.6999
Ar -0.0281815 -4.02975 -2.60757
Ar 3.85776 3.9989 -2.81473
Ar -3.52876 3.66479 -2.79939
Ar -3.69283 -3.83539 -2.79006
Ar 3.8211 -3.54514 -2.48244
Ar 1.60386 1.65512 5.41365
Ar -1.91472 1.80124 5.17431
Ar -1.63826 -1.78938 5.58473
Ar 2.28504 -1.92774 5.13451
Ar 1.88876 1.81087 -5.34983
Ar -1.81986 1.91644 -5.52107
Ar -1.91453 -1.93333 -5.5805
Ar 1.80618 -2.02978 -5.19012
38
Atoms. Timestep: 60000
Ar 1.84525 1.92837 -0.121125
Ar 5.47483 1.91826 -0.155451
Ar 2.0817 5.72622 -0.00240268
Ar -1.73386 1.95772 -0.0638599
Ar -5.66761 1.93747 -0.0292034
Ar -1.72742 5.69945 0.0700856
Ar -1.91723 -1.76715 -0.0708973
Ar -5.82145 -1.88575 -0.0204415
Ar -1.86436 -5.76805 0.157467
Ar 1.87414 -1.8713 -0.0690438
Ar 5.67874 -1.75903 0.175132
Ar 1.90233 -5.58778 0.140249
Ar -0.0816815 -0.0165217 2.62367
Ar 3.69725 0.102983 2.57413
Ar -3.88778 -0.00388322 2.63389
Ar 0.251356 3.74314 2.71453
Ar -0.0491933 -3.83191 2.86622
Ar 3.94897 3.83924 2.67534
Ar -3.71566 3.88086 2.5004
Ar -3.99279 -3.78068 2.55164
Ar 3.88159 -3.78017 2.4613
Ar -0.0552736 -0.0180688 -2.71873
Ar 3.71211 0.0576466 -2.66626
Ar -3.90518 0.00263842 -2.75996
Ar 0.0945746 3.79998 -2.72299
Ar -0.0628478 -3.74717 -2.55065
Ar 3.84822 3.77361 -2.86768
Ar -3.78007 3.78439 -2.5261
Ar -3.84663 -3.83895 -2.56101
Ar 4.17885 -3.77341 -2.55927
Ar 2.01405 1.82465 5.57828
Ar -1.87959 1.94767 5.33371
Ar -2.12331 -2.03852 5.38203
Ar 1.95053 -1.92874 5.23968
Ar 1.73193 1.78608 -5.32252
Ar -2.01113 1.84456 -5.43811
Ar -1.96276 -2.05243 -5.26406
Ar 1.9214 -2.10444 -5.188
38
Atoms. Timestep: 70000
Ar 1.8244 1.93286 -0.0430794
Ar 5.75146 1.72158 -0.0248404
Ar 1.77048 5.67708 0.0214682
Ar -1.90023 1.94473 0.0632331
Ar -5.62383 1.93105 5.02652e-05
Ar -2.08585 5.74731 0.0332657
Ar -1.96347 -1.87451 -0.107957
Ar -5.78487 -2.11465 -0.0679634
Ar -1.88376 -5.6192 0.251702
Ar 1.90953 -1.89186 0.109537
Ar 5.62995 -2.05696 -0.166121
Ar 1.86407 -5.59553 0.0410393
Ar 0.119366 -0.00405482 2.61859
Ar 3.86187 -0.0772064 2.51534
Ar -3.7604 0.103598 2.4897
Ar 0.020944 3.99565 2.66518
Ar -0.148743 -3.79623 2.8323
Ar 3.80027 3.57619 2.4776
Ar -3.96038 3.87084 2.86052
Ar -3.81055 -3.7325 2.65563
Ar 3.90052 -3.82237 2.73853
Ar 0.00134156 0.0726376 -2.59665
Ar 3.73809 0.00389032 -2.5442
Ar -3.92278 0.033596 -2.74521
Ar 0.16573 3.91068 -2.74426
Ar 0.0513413 -3.75363 -2.65216
Ar 3.9807 3.84662 -2.40047
Ar -3.58874 3.70236 -2.68544
Ar -3.78497 -3.92429 -2.54077
Ar 3.73759 -3.82331 -2.76571
Ar 2.09781 1.86818 5.16258
Ar -1.85974 1.8986 5.17562
Ar -1.91393 -1.8146 5.4156
Ar 1.87038 -1.7642 5.37617
Ar 1.87324 1.97776 -5.34593
Ar -1.78368 1.65856 -5.484
Ar -1.97547 -1.98215 -5.24296
Ar 1.78428 -1.82553 -5.34593
38
Atoms. Timestep: 80000
Ar 1.86944 1.79535 -0.0200668
Ar 5.78622 1.77283 -0.100838
Ar 1.90333 5.7113 -0.234446
Ar -1.90511 1.87389 0.0670044
Ar -5.75958 2.02913 -0.0670323
Ar -1.89514 5.73798 0.220786
Ar -1.9243 -1.85858 -0.0650356
Ar -5.64542 -1.7681 0.191008
Ar -1.87907 -5.60835 -0.0924981
Ar 1.92056 -1.89721 0.0530653
Ar 5.52495 -1.88937 0.152761
Ar 2.11594 -5.62903 0.0578986
Ar 0.0628351 0.00737046 2.6486
Ar 3.88545 -0.0662409 2.86081
Ar -3.78466 0.0282985 2.64157
Ar 0.214146 3.745 2.56649
Ar -0.00933619 -3.58862 2.64669
Ar 3.92992 3.63555 2.43001
Ar -3.63816 3.75241 2.67144
Ar -3.73271 -3.87086 2.67773
Ar 3.62666 -3.96442 2.96618
Ar -0.149852 0.0727872 -2.61707
Ar 3.74642 0.0433358 -2.77402
Ar -3.72647 -0.0150702 -2.65753
Ar -0.186873 3.64509 -2.57334
Ar 0.0849449 -3.78992 -2.63926
Ar 3.84757 3.66917 -2.81301
Ar -3.91401 3.73449 -2.81863
Ar -3.90229 -3.77516 -2.63297
Ar 3.79128 -3.68355 -2.64623
Ar 1.98463 2.01621 5.3372
Ar -1.8572 1.9508 5.28363
Ar -1.96097 -1.91873 5.37516
Ar 1.75567 -1.90476 5.56306
Ar 1.79457 1.88423 -5.55462
Ar -1.89716 2.04883 -5.52325
Ar -1.87803 -1.95251 -5.25969
Ar 1.80379 -1.97256 -5.32155
38
Atoms. Timestep: 90000
Ar 1.84037 1.8188 -0.0348541
Ar 5.52985 1.87782 -0.126531
Ar 1.93964 5.55067 -0.0822812
Ar -1.90188 1.89472 0.0252016
Ar -5.62453 1.85332 -0.0921163
Ar -1.77264 5.61042 -0.00200565
Ar -1.98555 -1.87684 0.0191397
Ar -5.57005 -1.725 0.195376
Ar -1.72624 -5.60047 0.190777
Ar 1.80277 -1.93451 0.0609633
Ar 5.61806 -1.8204 -0.0780685
Ar 1.8983 -5.62389 -0.0848766
Ar 0.022419 0.0450987 2.75099
Ar 3.6448 0.0441577 2.59829
Ar -3.77135 0.0779172 2.76356
Ar 0.0295754 3.74251 2.82669
Ar -0.0800592 -3.68165 2.90445
Ar 3.94324 3.81426 2.63642
Ar -3.84773 3.83014 2.71789
Ar -3.96268 -3.84386 2.65436
Ar 3.88381 -3.72572 2.72899
Ar 0.0206768 0.0216995 -2.72269
Ar 3.66966 -0.157011 -2.72145
Ar -3.72311 -0.0773531 -2.6966
Ar 0.117522 3.65404 -2.71363
Ar -0.116368 -3.67936 -2.80267
Ar 3.82356 3.7764 -2.71672
Ar -3.67479 3.71848 -2.72269
Ar -3.84238 -3.84192 -2.57273
Ar 3.71654 -3.91682 -2.95597
Ar 1.95121 2.01369 5.53492
Ar -1.81443 1.97429 5.45594
Ar -2.02983 -1.91354 5.43811
Ar 1.91219 -1.76941 5.27591
Ar 1.98528 1.81357 -5.31524
Ar -1.79898 1.9606 -5.4108
Ar -1.92412 -2.00626 -5.34139
Ar 1.81925 -1.8976 -5.58466
38
Atoms. Timestep: 100000
Ar 1.8856 1.80954 0.0279255
Ar 5.86957 2.00436 -0.213712
Ar 1.88715 5.81958 -0.036733
Ar -1.81395 1.83216 -0.107675
Ar -5.80191 1.8954 -0.0822525
Ar -1.99515 5.61061 0.0503324
Ar -1.91176 -1.84735 0.121521
Ar -5.70427 -1.84303 -0.0183642
Ar -2.01266 -5.76253 0.129233
Ar 1.7706 -1.90092 0.0831466
Ar 5.65752 -1.81424 0.0420542
Ar 1.87655 -5.80617 0.0274182
Ar 0.0258659 0.0362537 2.72694
Ar 3.76772 -0.0600465 2.54343
Ar -3.86924 0.0120659 2.65572
Ar 0.147958 3.86173 2.63479
Ar 0.0648728 -3.8509 2.6942
Ar 3.85144 3.83112 2.54986
Ar -3.74605 3.60894 2.67732
Ar -3.85501 -3.67374 2.67984
Ar 3.77898 -3.82112 2.69265
Ar -0.00616392 -0.13935 -2.60428
Ar 3.87522 0.00280886 -2.70836
Ar -3.72168 0.0525232 -2.72016
Ar 0.035574 3.71651 -2.66245
Ar -0.201284 -3.96291 -2.54676
Ar 3.64779 3.74047 -2.49956
Ar -3.72127 3.84712 -2.84155
Ar -3.80099 -3.7135 -2.57928
Ar 3.69397 -3.86378 -2.62705
Ar 2.26561 1.97605 5.35993
Ar -1.66207 1.88895 5.33404
Ar -1.8888 -1.91237 5.34025
Ar 1.8019 -1.70132 5.35748
Ar 1.84992 1.84166 -5.22499
Ar -1.81895 1.98875 -5.54323
Ar -1.94283 -1.7548 -5.39364
Ar 1.72223 -1.94754 -5.31803
38
Atoms. Timestep: 110000
Ar 1.79224 1.85383 0.047218
Ar 5.53829 1.87695 0.110767
Ar 1.88311 5.69278 -0.10547
Ar -1.90558 1.82434 -0.079978
Ar -5.64658 2.11506 0.0400607
Ar -1.83185 5.65007 0.0226591
Ar -1.81461 -1.9151 0.0011807
Ar -5.70666 -1.64246 0.0195198
Ar -1.69649 -5.64516 0.111889
Ar 1.90078 -1.93279 0.0882607
Ar 5.61683 -1.97323 -0.0780849
Ar 1.96831 -5.82795 -0.00681932
Ar 0.128212 -0.00335977 2.65951
Ar 3.7424 -0.127182 2.73631
Ar -3.72429 0.0034298 2.63469
Ar -0.00565722 3.80196 2.62577
Ar 0.0877762 -3.74016 2.72045
Ar 3.75553 3.9068 2.62661
Ar -3.68856 3.90977 2.64278
Ar -3.89335 -3.74434 2.40543
Ar 3.83489 -3.96603 2.59015
Ar 0.0231941 -0.134915 -2.66535
Ar 3.68253 -0.0455719 -2.61779
Ar -3.88896 0.0434381 -2.58994
Ar 0.00179588 3.87709 -2.64787
Ar -0.00815035 -3.78371 -2.60143
Ar 3.8129 3.63051 -2.71539
Ar -3.73284 3.92336 -2.6968
Ar -3.71623 -3.83206 -2.44905
Ar 3.76664 -3.88672 -2.69823
Ar 1.98503 1.94301 5.30849
Ar -1.9159 1.90657 5.2576
Ar -1.83386 -1.90861 5.30607
Ar 1.93329 -1.74958 5.43088
Ar 1.76169 1.91046 -5.40524
Ar -1.9613 1.88503 -5.36837
Ar -2.02259 -1.96502 -5.3152
Ar 1.78004 -1.9295 -5.34527
38
Atoms. Timestep: 120000
Ar 1.90203 1.77555 0.0323533
Ar 5.6297 1.71487 -0.0237871
Ar 1.82414 5.68746 -0.0260023
Ar -1.88632 1.90006 0.00365276
Ar -5.7429 2.01127 0.0374505
Ar -1.91361 5.60769 -0.00863699
Ar -1.81742 -1.78971 -0.0480931
Ar -5.74224 -1.90871 0.0362278
Ar -1.76992 -5.60377 -0.0540652
Ar 1.93317 -1.8996 -0.0536754
Ar 5.7453 -2.12677 0.0963261
Ar 1.91408 -5.64648 0.0908048
Ar -0.0314189 -0.00624287 2.74346
Ar 3.76745 -0.0935294 2.66252
Ar -3.74927 0.0644721 2.6222
Ar -0.0200862 3.63354 2.57212
Ar 0.0704216 -3.76842 2.72398
Ar 3.81326 3.73902 2.56463
Ar -3.7808 3.90352 2.62495
Ar -3.69574 -3.66268 2.70333
Ar 3.76948 -3.90134 2.91057
Ar -0.0850059 0.0815748 -2.70089
Ar 3.7537 -0.139623 -2.77709
Ar -3.8416 0.0400927 -2.599
Ar -0.1137 3.79024 -2.78459
Ar 0.00741557 -3.65639 -2.74527
Ar 3.729 3.59956 -2.70074
Ar -3.87229 3.77058 -2.56433
Ar -3.75047 -3.66808 -2.60139
Ar 3.73767 -3.90215 -2.69671
Ar 2.01368 1.91715 5.25177
Ar -1.8529 2.0605 5.52348
Ar -1.93827 -1.74331 5.30979
Ar 1.97688 -1.78209 5.3687
Ar 1.84161 1.90675 -5.41243
Ar -1.8684 1.88396 -5.37244
Ar -1.87994 -1.83875 -5.35712
Ar 1.92531 -1.94922 -5.35206
38
Atoms. Timestep: 130000
Ar 1.83617 1.76916 0.0322339
Ar 5.64732 2.05884 0.00221643
Ar 1.77523 5.68489 -0.130846
Ar -1.83967 1.84934 -6.6078e-05
Ar -5.66651 2.00462 0.0829967
Ar -1.93398 5.64063 -0.0503013
Ar -1.94477 -1.85451 0.00625004
Ar -5.63072 -1.70177 0.0303288
Ar -2.03165 -5.63813 0.0392434
Ar 1.81602 -1.87688 0.00224204
Ar 5.66456 -1.80011 -0.0393041
Ar 1.76952 -5.82424 0.113585
Ar -0.016006 0.0727782 2.72709
Ar 3.75781 -0.0390823 2.61739
Ar -3.71456 0.0236432 2.81549
Ar -0.0361357 3.81579 2.69122
Ar -0.0909772 -3.73684 2.64219
Ar 3.7275 3.71885 2.57762
Ar -3.73092 3.92269 2.77466
Ar -3.74919 -3.75868 2.78328
Ar 3.84334 -3.81136 2.51041
Ar 0.0391307 -0.0528089 -2.64096
Ar 3.85026 0.0454964 -2.75277
Ar -3.72625 0.0549812 -2.75167
Ar 0.0489073 3.73872 -2.6979
Ar -0.0100713 -3.81509 -2.61127
Ar 3.79438 3.77348 -2.694
Ar -3.69191 3.7768 -2.65791
Ar -3.8489 -3.86966 -2.5194
Ar 3.72116 -3.82228 -2.59911
Ar 1.86641 1.74672 5.48477
Ar -1.82815 2.02038 5.41018
Ar -1.81509 -1.80992 5.37719
Ar 1.947 -2.08458 5.20048
Ar 1.94811 1.84575 -5.39786
Ar -1.78924 1.93965 -5.51705
Ar -1.8822 -1.9576 -5.44778
Ar 1.92606 -2.04865 -5.41287
38
Atoms. Timestep: 140000
Ar 1.95184 1.85928 -0.0324784
Ar 5.72251 1.88922 0.0797659
Ar 2.00416 5.69272 0.00448114
Ar -1.80333 1.86146 0.0192516
Ar -5.69007 1.86036 0.0611737
Ar -1.80711 5.67898 0.00292129
Ar -1.89968 -1.85456 -0.0184735
Ar -5.80121 -1.86021 0.0592958
Ar -1.88335 -5.68824 0.0580372
Ar 1.93948 -1.9138 -0.0387273
Ar 5.7116 -1.97393 -0.0722431
Ar 1.89836 -5.69631 0.0548212
Ar 0.0157173 0.0562556 2.58228
Ar 3.69804 0.000875498 2.61366
Ar -3.74417 -0.0436441 2.70181
Ar 0.140422 3.87356 2.60792
Ar -0.0315394 -3.71033 2.66127
Ar 3.8762 3.73004 2.67803
Ar -3.83291 3.82179 2.51276
Ar -3.74391 -3.82981 2.62883
Ar 3.77962 -3.74475 2.65623
Ar -0.0597958 -0.0399097 -2.62727
Ar 3.6868 0.00605505 -2.6261
Ar -3.82945 0.0191592 -2.63617
Ar -0.0293682 3.72354 -2.65566
Ar -0.0626958 -3.81712 -2.58998
Ar 3.84085 3.76401 -2.64856
Ar -3.70615 3.80894 -2.45791
Ar -3.89688 -3.88394 -2.73877
Ar 3.74573 -3.79531 -2.68195
Ar 1.81133 1.91388 5.28015
Ar -1.94401 2.00281 5.21792
Ar -1.84522 -1.70678 5.31488
Ar 1.96478 -1.86601 5.38211
Ar 1.92035 1.81589 -5.35888
Ar -1.89639 1.91298 -5.28277
Ar -1.98184 -1.86218 -5.3266
Ar 1.78328 -2.00398 -5.38504
38
Atoms. Timestep: 150000
Ar 1.86516 1.86293 -0.00805645
Ar 5.72378 1.84636 0.00909747
Ar 1.9327 5.73536 -0.0590269
Ar -1.86789 1.89716 0.0234507
Ar -5.65728 1.88686 0.040201
Ar -1.88662 5.71419 -0.0478135
Ar -1.88999 -1.83865 -0.00469957
Ar -5.64067 -1.91138 -0.0240586
Ar -2.02561 -5.69161 0.0374474
Ar 1.89482 -1.88763 0.0633289
Ar 5.70563 -1.97269 0.0549355
Ar 1.83161 -5.69245 0.0672942
Ar 0.0478372 0.0152789 2.62894
Ar 3.79523 -0.0290267 2.56289
Ar -3.78273 0.00647107 2.71618
Ar 0.0228797 3.8316 2.67797
Ar -0.0592 -3.77613 2.63906
Ar 3.72651 3.81815 2.59454
Ar -3.78196 3.78102 2.63764
Ar -3.79939 -3.67332 2.69706
Ar 3.87645 -3.88087 2.78961
Ar -0.0269862 -0.0142649 -2.66553
Ar 3.69622 -0.0577944 -2.59318
Ar -3.79535 0.0645347 -2.59299
Ar 0.00780218 3.76141 -2.7063
Ar -0.036432 -3.73602 -2.6231
Ar 3.76943 3.78977 -2.75679
Ar -3.74694 3.75129 -2.6773
Ar -3.7817 -3.65534 -2.68715
Ar 3.73269 -3.86846 -2.60782
Ar 1.91945 1.84894 5.30573
Ar -1.85213 1.91224 5.32796
Ar -1.76559 -1.85976 5.32199
Ar 1.97178 -1.87855 5.3198
Ar 1.86467 1.80744 -5.30006
Ar -1.90548 1.91191 -5.34282
Ar -1.92089 -1.85948 -5.43072
Ar 1.84019 -1.95849 -5.38772
38
Atoms. Timestep: 160000
Ar 1.91074 1.92351 0.0252093
Ar 5.56215 1.95546 -0.0721904
Ar 1.90615 5.64837 -0.0684578
Ar -1.81511 1.89938 0.0126722
Ar -5.62777 1.8909 0.0118549
Ar -1.76727 5.63832 -0.0428323
Ar -1.84967 -1.79292 0.0471372
Ar -5.53695 -1.93393 0.0721073
Ar -1.98227 -5.59381 0.0508628
Ar 1.83302 -1.95321 0.105202
Ar 5.62497 -1.81327 0.000750819
Ar 1.87265 -5.75125 -0.011381
Ar 0.0449805 0.00816671 2.65082
Ar 3.75655 -0.0861429 2.70262
Ar -3.74607 0.104324 2.65492
Ar 0.0518212 3.83595 2.64145
Ar -0.0242857 -3.87785 2.71771
Ar 3.80228 3.79537 2.69724
Ar -3.6951 3.87332 2.76995
Ar -3.76521 -3.64366 2.76244
Ar 3.78049 -3.8705 2.66932
Ar -0.0124987 -0.0274807 -2.61563
Ar 3.71987 -0.0748307 -2.59406
Ar -3.78154 -0.0234803 -2.66968
Ar -0.00641383 3.77804 -2.73474
Ar 0.00158631 -3.74878 -2.68005
Ar 3.74894 3.78419 -2.7501
Ar -3.71617 3.80212 -2.67833
Ar -3.76605 -3.69877 -2.6411
Ar 3.74961 -3.86075 -2.6493
Ar 1.82712 1.83168 5.32579
Ar -1.95305 1.88645 5.34189
Ar -1.86738 -1.83828 5.34263
Ar 1.89692 -1.97914 5.26104
Ar 1.82063 1.88032 -5.42075
Ar -1.96855 1.83089 -5.47965
Ar -1.89009 -1.9073 -5.3179
Ar 1.86295 -1.89039 -5.43749
38
Atoms. Timestep: 170000
Ar 1.99609 1.80466 0.0122052
Ar 5.71885 1.91125 -0.0333248
Ar 2.03844 5.68178 0.061047
Ar -1.86423 1.90646 -0.0124896
Ar -5.62901 1.90464 -0.0260408
Ar -1.76674 5.68484 -0.0813967
Ar -1.84797 -1.90369 0.0740543
Ar -5.71458 -1.87364 -0.0321437
Ar -1.86617 -5.63611 0.0392406
Ar 1.90003 -1.90667 0.00917643
Ar 5.56531 -1.90684 -0.0166632
Ar 1.82138 -5.67635 0.0158328
Ar -0.0295006 0.0228598 2.60984
Ar 3.76124 0.0285749 2.64985
Ar -3.80664 0.00477836 2.66803
Ar 0.0306244 3.72944 2.58849
Ar 0.0337923 -3.81135 2.7048
Ar 3.88728 3.76683 2.7584
Ar -3.76055 3.80086 2.61125
Ar -3.79121 -3.79947 2.72456
Ar 3.75827 -3.84674 2.5871
Ar -0.00888602 0.0327203 -2.58757
Ar 3.82513 0.0427103 -2.72362
Ar -3.77381 -0.0392364 -2.58125
Ar 0.0229398 3.7587 -2.6038
Ar -0.034562 -3.75523 -2.68442
Ar 3.72331 3.87425 -2.75067
Ar -3.81325 3.7998 -2.6152
Ar -3.76925 -3.76596 -2.57528
Ar 3.74443 -3.8493 -2.69359
Ar 1.84798 1.91238 5.29588
Ar -1.85497 1.93663 5.34769
Ar -1.94656 -1.82655 5.33348
Ar 1.82126 -1.85909 5.32421
Ar 1.86002 1.8726 -5.45434
Ar -1.86346 1.82999 -5.29944
Ar -1.98177 -1.92324 -5.37379
Ar 1.76878 -1.92626 -5.27011
38
Atoms. Timestep: 180000
Ar 1.91428 1.86415 -0.0420863
Ar 5.75686 1.83287 -0.0682519
Ar 1.84336 5.66653 -0.0229707
Ar -1.89787 1.90123 0.0396743
Ar -5.73412 1.81048 0.0137325
Ar -1.88884 5.69372 0.080964
Ar -1.89692 -1.86897 -0.0152735
Ar -5.61029 -1.92936 -0.0384601
Ar -1.96306 -5.63453 0.0258726
Ar 1.86263 -1.88044 -0.0199205
Ar 5.8081 -1.93903 0.0230975
Ar 1.78726 -5.73411 -0.00552487
Ar 0.0241546 0.0436828 2.619
Ar 3.78403 -0.00403029 2.64232
Ar -3.68008 0.0240632 2.66675
Ar 0.0538506 3.77736 2.64972
Ar -0.038561 -3.69525 2.64204
Ar 3.90502 3.79608 2.5412
Ar -3.78183 3.81459 2.6334
Ar -3.78964 -3.70896 2.67403
Ar 3.79268 -3.72842 2.5599
Ar 0.0168957 -0.0660052 -2.59623
Ar 3.82986 -0.0907427 -2.65072
Ar -3.74724 0.0404775 -2.67361
Ar -0.0727598 3.70483 -2.67646
Ar -0.0984812 -3.84718 -2.70269
Ar 3.7703 3.81343 -2.65899
Ar -3.82488 3.81104 -2.60626
Ar -3.8048 -3.78554 -2.73289
Ar 3.71252 -3.85482 -2.55829
Ar 1.93916 1.91349 5.36805
Ar -1.84477 1.94283 5.36471
Ar -1.91254 -1.8604 5.41282
Ar 1.85066 -1.8267 5.34774
Ar 1.81967 1.80216 -5.25615
Ar -1.87895 1.92284 -5.32491
Ar -1.90159 -1.77795 -5.37838
Ar 1.89793 -1.94241 -5.27695
38
Atoms. Timestep: 190000
Ar 1.83996 1.90919 -0.0373935
Ar 5.62573 1.8944 0.00092821
Ar 1.93281 5.62373 0.0043805
Ar -1.83365 1.89041 0.0186811
Ar -5.58649 2.03998 0.0316241
Ar -1.85146 5.63912 -0.0283875
Ar -1.89104 -1.85714 -0.0456229
Ar -5.66805 -1.85313 -0.0540974
Ar -1.8957 -5.67735 0.0502346
Ar 1.82945 -1.86679 0.00607826
Ar 5.61863 -1.89309 -0.0150231
Ar 1.96127 -5.57684 -0.0120944
Ar 0.0225193 0.0091041 2.67624
Ar 3.6867 0.0139867 2.67355
Ar -3.71745 0.0520519 2.69845
Ar 0.066635 3.70312 2.65177
Ar -0.0104967 -3.70273 2.68125
Ar 3.80738 3.69495 2.68104
Ar -3.67154 3.76766 2.72633
Ar -3.82824 -3.71579 2.62261
Ar 3.76312 -3.74653 2.66794
Ar 1.12406e-05 0.0128511 -2.67948
Ar 3.7533 0.0238784 -2.68657
Ar -3.72299 0.0730535 -2.63477
Ar 0.00852179 3.73621 -2.71667
Ar -0.0242624 -3.80772 -2.62529
Ar 3.73301 3.72822 -2.70379
Ar -3.70039 3.83093 -2.76998
Ar -3.79384 -3.8203 -2.61956
Ar 3.73581 -3.73102 -2.69694
Ar 1.87679 1.84907 5.37886
Ar -1.8647 1.89016 5.43966
Ar -1.89758 -1.89265 5.4056
Ar 1.92349 -1.95297 5.38907
Ar 1.84919 1.81295 -5.38825
Ar -1.95764 1.76491 -5.38634
Ar -1.94117 -1.97045 -5.35835
Ar 1.82436 -1.89443 -5.3457
38
Atoms. Timestep: 200000
Ar 1.85835 1.89268 -0.0316871
Ar 5.61879 1.78539 -0.0524476
Ar 2.01844 5.69335 0.0172839
Ar -1.89355 1.89624 0.00931038
Ar -5.66099 1.88021 0.0358063
Ar -1.78596 5.66931 -0.0771407
Ar -1.85141 -1.85756 0.063753
Ar -5.72392 -1.99075 0.0674168
Ar -1.86548 -5.61237 0.0579119
Ar 1.84962 -1.86854 -0.0164015
Ar 5.5819 -2.01295 -0.00125162
Ar 1.88155 -5.64366 -0.0466967
Ar 0.0225982 0.0390277 2.71544
Ar 3.68586 -0.0558484 2.65351
Ar -3.82281 -0.0328714 2.65034
Ar 0.00877244 3.822 2.63628
Ar 0.0331705 -3.7405 2.64739
Ar 3.82285 3.70116 2.63717
Ar -3.75051 3.80812 2.61246
Ar -3.79719 -3.75908 2.76035
Ar 3.74522 -3.79454 2.68986
Ar -0.00977084 0.0250553 -2.6279
Ar 3.71455 -0.0102996 -2.69587
Ar -3.75233 -0.0660033 -2.5479
Ar 0.0159704 3.76634 -2.68836
Ar -0.0822767 -3.66933 -2.69439
Ar 3.8205 3.81425 -2.65738
Ar -3.73534 3.70586 -2.71668
Ar -3.8403 -3.87658 -2.63755
Ar 3.71718 -3.73696 -2.77587
Ar 1.91444 1.87983 5.30281
Ar -1.85883 1.9892 5.34784
Ar -1.83278 -1.77813 5.34058
Ar 1.89219 -1.91557 5.38963
Ar 1.98482 1.98127 -5.26873
Ar -1.77792 1.81556 -5.36621
Ar -2.015 -1.94993 -5.34477
Ar 1.8716 -1.79236 -5.3879
38
Atoms. Timestep: 210000
Ar 1.91128 1.86846 -0.0559321
Ar 5.73035 1.89299 -0.0673449
Ar 1.85873 5.65354 -0.131496
Ar -1.87704 1.93878 -0.00114854
Ar -5.63506 1.86043 0.181812
Ar -1.86353 5.88659 -0.0605991
Ar -1.91773 -1.88346 0.0393314
Ar -5.75851 -1.92579 -0.0900809
Ar -1.91083 -5.70392 -0.0617405
Ar 1.91982 -1.93635 -0.0157629
Ar 5.75485 -1.94748 -0.0976082
Ar 1.80539 -5.74733 0.154874
Ar -0.0292102 0.0425181 2.67444
Ar 3.71693 -0.0254446 2.55245
Ar -3.81311 -0.0322669 2.69384
Ar -0.021099 3.8453 2.67593
Ar -0.118717 -3.80813 2.67448
Ar 3.74242 3.89312 2.52217
Ar -3.76782 3.70698 2.79466
Ar -3.88408 -3.78538 2.62392
Ar 3.84394 -3.82461 2.6649
Ar 0.0414348 0.0333078 -2.70043
Ar 3.78753 -0.105146 -2.56993
Ar -3.82863 0.0809156 -2.69466
Ar -0.0461676 3.79723 -2.6496
Ar -0.0197736 -3.70929 -2.59235
Ar 3.69156 3.74318 -2.74188
Ar -3.7722 3.85714 -2.6759
Ar -3.81215 -3.86359 -2.60434
Ar 3.8422 -3.88199 -2.5253
Ar 2.08474 1.94381 5.26459
Ar -1.74985 1.78095 5.39764
Ar -1.96074 -1.9592 5.34603
Ar 1.84445 -1.87074 5.29011
Ar 1.87079 1.86339 -5.40832
Ar -1.76785 1.97976 -5.36122
Ar -1.83223 -1.71928 -5.30223
Ar 1.94189 -1.93799 -5.14331
38
Atoms. Timestep: 220000
Ar 1.93458 1.73516 -0.00152723
Ar 5.63421 1.60484 0.147406
Ar 1.94033 5.50065 0.0386979
Ar -1.84295 1.86202 -0.0135059
Ar -5.69668 1.79611 0.0317821
Ar -1.75355 5.88765 0.0892001
Ar -1.90207 -1.83181 -0.0660974
Ar -5.89724 -2.055 -0.0759407
Ar -1.4074 -5.74671 -0.00705609
Ar 1.85752 -1.96541 -0.0537045
Ar 5.61995 -2.09348 -0.107072
Ar 2.39873 -5.68138 -0.259569
Ar -0.101127 0.0941731 2.733
Ar 3.71133 -0.133955 2.68436
Ar -3.76823 0.0434529 2.6492
Ar -0.0667224 3.87064 2.70725
Ar -0.0560363 -3.55964 2.82982
Ar 3.68527 3.70451 2.73149
Ar -3.74422 3.77026 2.47115
Ar -3.72761 -3.61804 2.66916
Ar 3.78412 -3.88778 2.79709
Ar -0.0809827 -0.026231 -2.68554
Ar 3.81274 -0.119084 -2.69675
Ar -3.77924 0.128351 -2.72667
Ar -0.0553081 3.70871 -2.62238
Ar 0.0746724 -3.74153 -2.74938
Ar 3.91679 3.71222 -2.56793
Ar -3.8565 3.83104 -2.81463
Ar -3.82554 -3.71397 -2.54994
Ar 3.73487 -3.73054 -3.05114
Ar 1.80239 1.9932 5.55862
Ar -1.91249 2.06249 5.43582
Ar -1.97104 -1.66174 5.54366
Ar 1.82087 -1.75759 5.42695
Ar 1.90902 2.00944 -5.34318
Ar -1.9153 1.82745 -5.46596
Ar -1.98736 -1.93167 -5.17707
Ar 1.7122 -1.88583 -5.50961
38
Atoms. Timestep: 230000
Ar 1.84099 1.97558 -0.0624641
Ar 5.54461 1.92485 0.00707867
Ar 1.79086 5.69187 0.0628853
Ar -1.86517 1.8675 -0.00897371
Ar -5.54089 1.9272 0.0765477
Ar -2.0234 5.62465 0.102456
Ar -1.89045 -1.85227 -0.0828572
Ar -5.60238 -1.85031 0.123316
Ar -2.02251 -5.58884 0.036539
Ar 1.83472 -1.90014 0.0632141
Ar 5.63653 -1.95555 -0.0199166
Ar 1.78634 -5.702 -0.0198308
Ar 0.0262345 0.00644477 2.57043
Ar 3.67418 0.00774878 2.57367
Ar -3.61493 0.0344357 2.60971
Ar -0.0131318 3.73089 2.70539
Ar -0.072372 -3.80293 2.73322
Ar 3.79568 3.85823 2.56758
Ar -3.78093 3.68459 2.79266
Ar -3.81724 -3.75591 2.64238
Ar 3.73665 -3.77832 2.61979
Ar 0.0793963 0.0503339 -2.69229
Ar 3.83234 0.0132342 -2.67259
Ar -3.67739 -0.0376153 -2.69505
Ar 0.0685762 3.86843 -2.62759
Ar -0.0337706 -3.73439 -2.65023
Ar 3.85839 3.92759 -2.75953
Ar -3.77295 3.74339 -2.79181
Ar -3.8211 -3.79118 -2.6539
Ar 3.70264 -3.93875 -2.53103
Ar 1.99827 2.00909 5.24216
Ar -1.81347 1.66499 5.43379
Ar -1.94333 -2.0054 5.27299
Ar 1.80919 -1.80343 5.29226
Ar 1.95322 1.9165 -5.35125
Ar -1.72969 1.85604 -5.3772
Ar -1.88923 -1.9628 -5.30042
Ar 1.95754 -1.92276 -5.23113
38
Atoms. Timestep: 240000
Ar 1.98307 1.9093 -0.00528891
Ar 5.7595 1.81172 -0.0251004
Ar 2.08533 5.66055 0.093233
Ar -1.73031 1.86084 -0.0368876
Ar -5.80944 1.61924 0.0546575
Ar -1.86085 5.8033 0.0361967
Ar -1.82532 -1.89898 0.014914
Ar -5.59263 -2.18828 -0.0617899
Ar -2.0531 -5.51902 0.0713077
Ar 1.92877 -1.88086 -0.0813619
Ar 5.66992 -2.02635 0.0802733
Ar 1.8715 -5.62961 -0.0106909
Ar 0.0247947 0.108714 2.6699
Ar 3.77061 -0.0625239 2.60672
Ar -3.79726 0.00285384 2.59803
Ar 0.0364411 3.80974 2.71582
Ar -0.0313343 -3.71765 2.74581
Ar 3.8442 3.77987 2.95522
Ar -3.89695 3.65205 2.6067
Ar -3.93779 -3.76908 2.7476
Ar 3.68053 -3.81225 2.74937
Ar 0.0442991 -0.0608073 -2.6133
Ar 3.88887 0.0684453 -2.86251
Ar -3.85499 -0.0250691 -2.6381
Ar -0.0854852 3.79748 -2.73695
Ar 0.0899573 -3.89287 -2.79882
Ar 3.79443 3.75006 -2.64792
Ar -3.83705 3.70015 -2.49431
Ar -3.60832 -3.76839 -2.78905
Ar 3.69804 -3.71064 -2.85085
Ar 1.98542 1.83906 5.39784
Ar -1.8452 2.09753 5.37056
Ar -1.91432 -1.6364 5.23989
Ar 1.78922 -1.76524 5.52103
Ar 1.85676 2.06009 -5.50409
Ar -1.86917 1.7428 -5.26082
Ar -2.01656 -1.98814 -5.39051
Ar 1.7664 -1.72065 -5.46672
38
Atoms. Timestep: 250000
Ar 1.88646 1.87581 0.0502427
Ar 5.5882 2.24859 -0.0426977
Ar 1.96262 5.73982 -0.0162464
Ar -2.02895 1.85919 -0.0248472
Ar -5.78194 2.06491 0.10699
Ar -1.85615 5.60766 -0.101366
Ar -1.90318 -1.88623 -0.0638933
Ar -5.65946 -1.68693 0.0368246
Ar -1.86823 -5.69264 0.157273
Ar 1.92769 -1.92181 0.00402
Ar 5.66523 -1.85166 0.0325117
Ar 1.86246 -5.75759 -0.0568328
Ar -0.083494 -0.0506073 2.58194
Ar 3.73605 0.0639707 2.62084
Ar -3.84626 0.00875998 2.69593
Ar 0.10784 3.79764 2.71959
Ar 0.0368788 -3.75199 2.70637
Ar 3.83915 3.74743 2.68008
Ar -3.7777 3.898 2.82913
Ar -3.80611 -3.75715 2.64873
Ar 3.80291 -3.9481 2.59291
Ar -0.0429585 0.0313336 -2.69279
Ar 3.86979 0.0593173 -2.51319
Ar -3.83793 -0.0811088 -2.75545
Ar 0.0188899 3.65476 -2.69657
Ar 0.0394392 -3.72654 -2.69659
Ar 3.71426 3.85359 -2.85479
Ar -3.74083 3.67812 -2.68346
Ar -3.85144 -3.82417 -2.66129
Ar 3.89982 -3.82776 -2.57379
Ar 1.89712 1.72729 5.36401
Ar -1.87906 1.86609 5.34064
Ar -1.90024 -1.94538 5.3171
Ar 1.94203 -1.93379 5.29184
Ar 1.92442 1.89456 -5.36057
Ar -1.89391 1.77151 -5.4378
Ar -1.95614 -1.97291 -5.41422
Ar 1.99474 -1.83096 -5.13058
38
Atoms. Timestep: 260000
Ar 1.933 1.9032 -0.0284383
Ar 5.68032 1.80754 -0.00719054
Ar 1.95506 5.80669 -0.116873
Ar -1.80944 1.85939 -0.00421353
Ar -5.68447 1.75266 0.0123447
Ar -1.72943 5.71726 0.0575362
Ar -1.95501 -1.81843 -0.0284505
Ar -5.61141 -2.01716 0.0999144
Ar -1.80226 -5.57389 -0.0373483
Ar 1.78112 -1.80075 0.113316
Ar 5.60561 -1.98687 -0.0810193
Ar 1.91329 -5.68136 0.0959065
Ar -0.0248128 0.000421125 2.64254
Ar 3.6683 -0.0952938 2.69774
Ar -3.7283 -0.0293934 2.68301
Ar -0.0603535 3.74602 2.57571