38
Atoms. Timestep: 0
Ar 1.668 1.873 0
Ar 5.651 1.903 0.003
Ar 1.878 5.656 -0.01
Ar -1.867 1.863 -0.007
Ar -5.65 1.873 -0.014
Ar -1.898 5.645 -0.014
Ar -1.857 -1.873 0
Ar -5.64 -1.903 -0.003
Ar -1.867 -5.656 0.01
Ar 1.878 -1.863 0.007
Ar 5.661 -1.873 0.014
Ar 1.909 -5.645 0.014
Ar 0.002 0.007 2.642
Ar 3.751 0.017 2.659
Ar -3.75 -0.003 2.646
Ar -0.008 3.756 2.646
Ar 0.012 -3.745 2.659
Ar 3.761 3.786 2.656
Ar -3.778 3.766 2.646
Ar -3.757 -3.773 2.663
Ar 3.781 -3.752 2.673
Ar 0.009 -0.007 -2.642
Ar 3.761 0.003 -2.646
Ar -3.74 -0.017 -2.659
Ar -0.002 3.746 -2.659
Ar 0.019 -3.756 -2.646
Ar 3.768 3.773 -2.663
Ar -3.771 3.752 -2.673
Ar -3.75 -3.786 -2.656
Ar 3.788 -3.766 -2.646
Ar 1.871 1.897 5.329
Ar -1.888 1.886 5.325
Ar -1.878 -1.873 5.332
Ar 1.881 -1.863 5.339
Ar 1.888 1.873 -5.332
Ar -1.871 1.863 -5.339
Ar -1.861 -1.897 -5.329
Ar 1.898 -1.886 -5.325
38
Atoms. Timestep: 10000
Ar 1.84381 2.00822 0.0242422
Ar 5.49588 2.04327 -0.12765
Ar 2.20181 5.64657 0.366745
Ar -1.93514 1.94852 -0.0265452
Ar -5.57821 1.92696 0.0489109
Ar -1.59774 5.71546 -0.129293
Ar -1.99242 -1.95268 -0.110447
Ar -5.70671 -1.82809 -0.0691426
Ar -2.09301 -5.99444 0.331302
Ar 1.64256 -2.11702 -0.18925
Ar 5.74814 -1.73305 0.249648
Ar 1.97307 -5.79799 -0.0377876
Ar -0.0498494 0.099825 2.56532
Ar 3.72327 0.215013 2.71219
Ar -3.69544 0.0695845 2.73148
Ar 0.0435392 3.66744 2.89507
Ar -0.113454 -3.67797 2.46599
Ar 4.13658 3.82487 2.94757
Ar -3.57222 4.01498 2.65388
Ar -3.79604 -3.92395 2.70644
Ar 3.69864 -3.49986 2.74347
Ar -0.0072352 0.0231289 -2.79989
Ar 3.77067 0.0230547 -2.59839
Ar -3.70929 -0.0562974 -2.71708
Ar -0.219004 3.84737 -3.01835
Ar 0.0954245 -3.94327 -2.65298
Ar 3.45375 3.94058 -2.77147
Ar -3.84494 4.02157 -2.72462
Ar -3.92605 -3.92266 -2.53945
Ar 3.9636 -3.86349 -2.5677
Ar 1.6684 1.77686 5.48383
Ar -2.02056 1.79531 5.41554
Ar -1.7649 -1.94631 5.28634
Ar 1.99849 -1.9311 5.48938
Ar 1.93428 1.88285 -5.78121
Ar -1.76152 1.79144 -5.46384
Ar -1.92643 -2.11685 -5.41485
Ar 1.92027 -1.97685 -5.37742
38
Atoms. Timestep: 20000
Ar 1.83186 1.9553 -0.134766
Ar 5.64864 1.8517 0.254252
Ar 2.09151 5.64994 -0.0417193
Ar -1.88407 1.90383 -0.0821655
Ar -5.80194 1.58983 0.255715
Ar -1.73785 5.63905 -0.111558
Ar -1.95879 -1.93003 -0.0147617
Ar -5.47533 -2.11212 0.0105741
Ar -2.10711 -5.5629 -0.1599
Ar 1.94887 -1.8763 0.0289401
Ar 5.65545 -1.87686 -0.0182337
Ar 1.80596 -5.5422 0.050935
Ar 0.01246 0.111611 2.58309
Ar 3.67802 0.0651523 2.48962
Ar -3.76969 0.0827907 2.83965
Ar -0.0197944 3.77421 2.64311
Ar 0.000706431 -3.63515 2.70825
Ar 3.69943 3.74978 2.89234
Ar -3.88819 3.85913 2.61214
Ar -3.86396 -3.68944 2.89275
Ar 3.69552 -3.61627 2.68916
Ar 0.178412 -0.16335 -2.56932
Ar 3.76477 -0.11329 -2.84999
Ar -3.70147 -0.0156005 -2.5984
Ar -0.0941843 3.77453 -2.8026
Ar 0.0935248 -3.73176 -2.68875
Ar 3.94125 3.75474 -2.78754
Ar -4.10609 3.81087 -2.67938
Ar -3.79876 -3.66727 -3.00928
Ar 3.96619 -3.90142 -2.57287
Ar 1.88877 1.62669 5.59186
Ar -1.82354 1.93043 5.44077
Ar -1.80981 -1.7761 5.29944
Ar 1.79598 -1.88481 5.38485
Ar 1.91251 1.70876 -5.34661
Ar -2.15007 2.14652 -5.36224
Ar -1.72911 -1.77901 -5.38351
Ar 2.11192 -2.10998 -5.45386
38
Atoms. Timestep: 30000
Ar 2.06042 1.81987 -0.0968633
Ar 5.88994 1.73783 0.189051
Ar 1.80258 5.70853 -0.11535
Ar -1.83287 1.83361 0.150598
Ar -5.47645 2.03301 -0.0803025
Ar -2.30778 5.38133 -0.225703
Ar -1.81026 -1.82461 -0.0925542
Ar -5.59764 -1.83568 -0.0995922
Ar -2.11882 -5.71954 0.278661
Ar 1.97618 -1.86872 0.210246
Ar 5.6929 -2.0418 0.0254612
Ar 1.98028 -5.56492 -0.174688
Ar 0.101998 0.0755958 2.62029
Ar 3.81639 0.0655889 2.73087
Ar -3.76421 0.167216 2.97151
Ar -0.0269792 3.78491 2.56737
Ar -0.144607 -3.88352 2.68911
Ar 3.82063 3.82001 2.45693
Ar -3.68617 3.68528 3.04243
Ar -4.00361 -3.64472 2.69506
Ar 3.80035 -3.86222 2.89746
Ar -0.0193837 0.0828091 -2.68283
Ar 3.6678 -0.0103371 -2.66167
Ar -3.56958 -0.0234564 -2.78196
Ar -0.100529 3.8022 -2.51343
Ar 0.055409 -3.61522 -2.62489
Ar 3.74641 3.76118 -2.63255
Ar -3.92778 3.63462 -2.91689
Ar -3.63256 -3.97797 -2.69768
Ar 3.87995 -3.73812 -2.93971
Ar 1.86038 1.81477 5.2663
Ar -1.82014 1.88239 5.71282
Ar -1.9168 -1.83821 5.26846
Ar 1.636 -1.99315 5.31752
Ar 1.85353 2.03828 -5.42301
Ar -1.77431 1.94094 -5.41597
Ar -2.01456 -1.96121 -5.52116
Ar 1.90592 -1.66557 -5.39334
38
Atoms. Timestep: 40000
Ar 1.77717 2.02615 0.105199
Ar 5.42031 2.17844 -0.195607
Ar 1.77138 5.68889 -0.0281561
Ar -1.80758 1.69574 -0.0888749
Ar -5.55085 1.75323 0.19262
Ar -1.92945 5.49863 0.0334504
Ar -1.7697 -2.03256 -0.057731
Ar -5.64332 -1.91353 -0.192947
Ar -2.39527 -5.77301 -0.178784
Ar 1.76055 -1.98423 0.221275
Ar 5.62085 -1.7537 0.165879
Ar 1.44158 -6.16331 0.191747
Ar 0.107987 -0.105916 2.74945
Ar 3.83698 0.205165 2.65925
Ar -3.58407 -0.00233231 2.73183
Ar 0.0447127 3.933 2.80959
Ar -0.180366 -3.82389 2.79364
Ar 3.74332 3.93639 2.659
Ar -3.65621 3.69474 2.74757
Ar -3.90175 -3.69802 2.70342
Ar 3.81626 -3.82607 2.58397
Ar 0.0808868 0.0599727 -2.65319
Ar 3.6023 -0.111192 -2.38421
Ar -3.79859 0.143118 -2.98578
Ar -0.112096 3.75554 -2.91727
Ar 0.0671572 -3.77877 -2.58287
Ar 3.49251 3.71079 -2.74457
Ar -4.01127 3.82982 -2.54096
Ar -3.60133 -3.57283 -3.05984
Ar 3.91281 -3.93496 -2.33201
Ar 2.24456 1.95529 5.47822
Ar -1.7102 1.82732 5.45326
Ar -1.80882 -1.91833 5.56038
Ar 2.08783 -1.81181 5.10527
Ar 2.06753 1.78118 -5.47364
Ar -2.01493 2.12653 -5.64528
Ar -1.6512 -1.61009 -5.51005
Ar 2.23234 -1.98439 -5.37324
38
Atoms. Timestep: 50000
Ar 2.02137 1.8287 -0.151738
Ar 5.76049 2.31022 -0.0872769
Ar 1.68482 5.76226 -0.150485
Ar -1.82542 1.91941 0.0356106
Ar -5.5372 2.01563 0.0926862
Ar -1.92082 5.68867 -0.20185
Ar -1.88041 -2.07495 -0.205254
Ar -5.86548 -1.9421 0.0837342
Ar -1.75242 -5.80995 -0.0458971
Ar 1.74064 -1.81433 0.0394864
Ar 5.44287 -1.96823 0.24277
Ar 2.0954 -5.61628 0.0292227
Ar 0.183688 0.0749359 2.7507
Ar 4.14024 0.313297 2.76167
Ar -3.62942 -0.154173 2.59764
Ar 0.137841 3.75151 2.8172
Ar -0.164876 -3.66761 2.70415
Ar 3.85255 4.09581 2.50183
Ar -3.53825 3.89494 2.76825
Ar -4.03359 -3.98864 2.41671
Ar 3.45858 -3.82324 3.05608
Ar -0.110291 0.00587486 -2.85079
Ar 3.78138 -0.0832005 -2.69135
Ar -3.87555 -0.21995 -2.64266
Ar -0.19412 3.56369 -2.67286
Ar 0.102788 -3.93528 -2.75362
Ar 3.74378 4.02585 -2.65556
Ar -3.6569 3.55887 -2.67303
Ar -3.64256 -3.97913 -2.62083
Ar 3.76285 -3.75318 -2.64616
Ar 2.10518 2.21365 5.31053
Ar -1.63563 1.31144 5.54847
Ar -2.19218 -2.31992 5.61066
Ar 1.40622 -1.71417 5.91269
Ar 2.03548 1.83097 -5.32211
Ar -1.9654 2.42251 -5.7301
Ar -1.92132 -1.51345 -5.59165
Ar 1.88765 -2.20945 -5.58688
38
Atoms. Timestep: 60000
Ar 1.9398 1.74463 -0.137678
Ar 5.89249 2.09203 -0.00588245
Ar 1.68475 5.5951 0.347159
Ar -1.71037 2.17756 0.0535153
Ar -6.13062 1.94191 -0.0564593
Ar -2.01167 5.84926 -0.262784
Ar -2.05518 -1.8191 0.0891966
Ar -5.92602 -2.5193 0.0999459
Ar -1.86338 -5.52521 0.253268
Ar 1.76618 -1.846 -0.0075206
Ar 6.10361 -2.01789 0.153731
Ar 1.75474 -5.45184 0.110702
Ar -0.0144671 -0.0422047 2.54626
Ar 4.02511 0.0168849 2.41554
Ar -4.19946 0.0646754 2.40689
Ar 0.00412209 3.6343 2.89791
Ar 0.172144 -3.83653 2.72226
Ar 3.83106 3.65494 2.56389
Ar -4.17458 4.05451 2.30196
Ar -3.73162 -3.71291 2.82721
Ar 3.99115 -3.62716 2.49646
Ar -0.0499027 0.00647425 -2.64768
Ar 4.0102 -0.084888 -2.61935
Ar -3.74792 0.119201 -2.46172
Ar -0.255045 3.92692 -2.81665
Ar -0.153656 -3.63362 -2.70938
Ar 3.79147 3.81878 -2.45881
Ar -4.23007 4.08643 -2.76216
Ar -3.84682 -3.84177 -2.55622
Ar 3.90212 -3.85257 -2.50989
Ar 1.95022 1.6098 5.23945
Ar -2.18701 1.93438 5.10776
Ar -1.4969 -1.76212 5.47972
Ar 2.10207 -2.12 5.36333
Ar 2.06497 1.72961 -5.15723
Ar -1.80555 1.77438 -5.21968
Ar -1.59904 -2.12514 -5.65612
Ar 2.20511 -2.01252 -5.43093
38
Atoms. Timestep: 70000
Ar 1.97183 2.01673 0.105391
Ar 5.83226 2.26195 0.122667
Ar 1.79202 5.62892 0.196252
Ar -1.8079 1.85249 -0.0951635
Ar -5.40432 2.0682 0.148003
Ar -2.22316 5.44906 0.0667277
Ar -2.07997 -1.91278 -0.0553108
Ar -5.74416 -1.72937 -0.0608551
Ar -2.33209 -5.62334 -0.0680666
Ar 2.01893 -1.82418 -0.105723
Ar 5.90735 -1.66542 0.0729534
Ar 1.94538 -5.73279 -0.0497858
Ar 0.161247 0.0771969 2.46836
Ar 3.8207 -0.0318212 2.51578
Ar -3.96698 -0.0173909 2.73937
Ar -0.199114 3.75032 2.69413
Ar 0.126001 -3.93527 2.33153
Ar 3.65987 4.00078 2.91752
Ar -4.14376 3.99493 2.94098
Ar -3.84161 -3.61153 2.67247
Ar 3.72665 -3.70635 2.53044
Ar 0.0649356 0.149916 -2.50754
Ar 3.89694 -0.0257208 -2.93602
Ar -3.76119 0.101095 -2.78011
Ar -0.00317292 3.6953 -2.85703
Ar -0.0662533 -3.82906 -2.46884
Ar 3.73881 3.65364 -2.66152
Ar -3.93859 3.69127 -2.91132
Ar -3.8235 -3.74454 -2.62823
Ar 4.19013 -3.74359 -2.33983
Ar 1.59506 1.90081 5.58612
Ar -2.15575 2.04199 5.33926
Ar -1.56969 -2.14649 5.29977
Ar 2.194 -2.01937 5.3794
Ar 2.08231 1.45011 -5.54204
Ar -1.66028 1.59538 -5.54725
Ar -1.92324 -2.01762 -5.38561
Ar 1.9223 -2.06246 -5.12686
38
Atoms. Timestep: 80000
Ar 1.8248 1.90203 0.147852
Ar 5.55731 1.87669 0.0372862
Ar 1.86383 5.85033 0.304352
Ar -1.89274 1.926 -0.293344
Ar -5.81765 2.47248 -0.530503
Ar -1.89715 6.04465 -0.353021
Ar -1.96242 -1.95888 -0.0390007
Ar -6.32355 -1.62471 0.23137
Ar -1.58744 -5.74602 0.257169
Ar 2.06771 -1.77879 0.0245427
Ar 5.53209 -1.92739 0.00489948
Ar 2.58289 -5.48496 0.172053
Ar -0.105974 -0.0796303 2.57572
Ar 3.86236 0.0654373 2.69222
Ar -3.91912 -0.0252318 2.27062
Ar -0.14573 3.86304 2.58404
Ar 0.620668 -3.6406 2.81147
Ar 4.21793 3.71591 3.1312
Ar -3.7771 3.69235 2.60102
Ar -4.08863 -3.88885 1.89777
Ar 4.33368 -3.5674 3.1922
Ar 0.074828 -0.0484575 -2.71236
Ar 3.90001 0.023758 -2.75138
Ar -4.05022 -0.144448 -2.49879
Ar 0.0853134 3.74917 -2.65954
Ar 0.385603 -3.77455 -2.43306
Ar 3.74746 3.65992 -2.84303
Ar -3.56286 4.05235 -2.93197
Ar -4.31307 -3.93832 -2.07231
Ar 4.06541 -3.73205 -3.03308
Ar 1.90124 1.73201 5.45346
Ar -2.05005 1.35181 5.33987
Ar -2.21676 -2.29262 4.70735
Ar 1.40402 -1.79533 5.82338
Ar 1.88658 2.07746 -5.67903
Ar -1.99956 1.58913 -5.17579
Ar -2.25172 -2.31923 -4.61751
Ar 2.05002 -1.87604 -5.63612
38
Atoms. Timestep: 90000
Ar 1.94076 1.93523 0.189888
Ar 5.58329 2.16992 -0.00928549
Ar 2.30152 5.96759 -0.0591505
Ar -1.7612 1.86757 0.2732
Ar -5.97446 2.07519 -0.228774
Ar -1.55751 6.37946 -0.157579
Ar -1.9202 -2.22816 0.0501054
Ar -5.82658 -2.07098 -0.230813
Ar -1.76486 -5.96622 -0.00546933
Ar 1.83739 -1.8877 0.142678
Ar 5.80021 -2.35984 -0.167411
Ar 1.81794 -5.4761 0.141326
Ar 0.0182631 -0.114828 2.78873
Ar 3.8402 0.0176412 2.59098
Ar -4.09702 -0.317237 2.53684
Ar 0.15037 4.20947 2.50511
Ar 0.0934157 -3.87119 2.79574
Ar 4.01389 3.88272 2.87454
Ar -3.95731 4.00195 2.56871
Ar -4.34424 -4.20299 2.52554
Ar 3.61207 -3.63338 2.76292
Ar -0.0182426 -0.0777914 -2.39421
Ar 3.77087 0.0191214 -2.56634
Ar -3.81247 -0.404474 -2.74437
Ar 0.228189 3.77401 -2.2258
Ar 0.110489 -3.73496 -2.88008
Ar 3.89184 3.82348 -2.71464
Ar -3.69063 3.37666 -2.65216
Ar -3.41037 -4.10263 -2.75075
Ar 3.75256 -3.87273 -3.03311
Ar 1.86477 2.32284 5.44595
Ar -1.97102 1.97536 4.97072
Ar -2.04289 -1.90591 5.68965
Ar 1.95675 -1.74355 5.72966
Ar 1.64865 2.28514 -5.47962
Ar -1.79947 1.50838 -5.17414
Ar -1.97109 -2.27818 -5.77744
Ar 1.68816 -1.3419 -5.33117
38
Atoms. Timestep: 100000
Ar 2.12504 1.72969 0.318188
Ar 6.00141 1.51658 0.657953
Ar 0.824992 6.03961 -0.488686
Ar -1.75374 1.77737 0.0524453
Ar -5.39519 1.99858 -0.137416
Ar -3.0082 5.40977 -0.0758562
Ar -1.92221 -1.90936 0.240694
Ar -6.05898 -1.64174 0.0997609
Ar -1.71975 -5.67794 -0.030789
Ar 1.75039 -1.91536 -0.0830824
Ar 5.46361 -1.96333 -0.25088
Ar 2.01021 -5.95595 0.0343949
Ar -0.0214162 0.00129118 2.67876
Ar 3.7723 -0.485646 2.76907
Ar -3.76221 -0.041575 2.97067
Ar -0.278574 4.04662 2.37378
Ar 0.079224 -4.04499 3.07483
Ar 3.74628 4.55246 2.14106
Ar -3.96079 3.73626 2.79189
Ar -4.1577 -3.94865 2.49351
Ar 3.90588 -4.02184 2.75171
Ar -0.149562 -0.0533898 -2.45499
Ar 3.80538 0.0435817 -2.56591
Ar -3.93485 -0.105296 -2.47698
Ar 0.469659 3.30454 -2.66733
Ar -0.215936 -3.67805 -2.90427
Ar 4.11897 4.08232 -2.18177
Ar -3.475 3.37731 -3.08794
Ar -3.81704 -3.82965 -2.46045
Ar 3.30658 -3.59281 -2.97142
Ar 2.06135 2.18226 4.59913
Ar -1.62317 1.98276 5.48558
Ar -1.60774 -1.84949 5.76824
Ar 2.14812 -1.83315 5.65081
Ar 3.1563 2.17701 -5.23463
Ar -1.17943 1.84315 -5.44609
Ar -2.34137 -1.84564 -5.6856
Ar 1.63917 -1.40633 -5.74839
38
Atoms. Timestep: 110000
Ar 1.96951 1.89077 -0.28494
Ar 5.59949 2.01843 -0.106173
Ar 2.35793 5.80419 -0.307557
Ar -1.67753 2.049 0.0163975
Ar -5.40073 2.29735 0.00963371
Ar -1.62744 5.78006 0.184393
Ar -1.98058 -1.83402 -0.300245
Ar -5.86531 -2.06587 -0.32401
Ar -1.42548 -6.57592 -0.483296
Ar 1.75702 -1.7591 -0.0752999
Ar 5.46809 -1.58322 0.263524
Ar 2.07874 -5.86356 0.599646
Ar -0.241631 -0.265481 2.58438
Ar 3.77558 0.849953 2.74716
Ar -3.90437 -0.0508375 2.55348
Ar 0.691005 3.43617 2.58356
Ar -0.501906 -3.80471 2.59177
Ar 4.54021 4.26231 3.19335
Ar -3.2572 3.5213 3.0634
Ar -3.91976 -4.59689 1.32918
Ar 3.25707 -3.0399 2.93469
Ar -0.132092 0.074472 -2.65758
Ar 4.01871 0.0441729 -2.90169
Ar -4.16967 0.0296879 -2.53752
Ar 0.0688154 4.03 -2.79597
Ar 0.0178988 -3.97327 -2.70491
Ar 3.85726 3.7014 -3.21474
Ar -3.91703 4.3661 -2.59531
Ar -3.83682 -4.26148 -2.49171
Ar 3.79497 -3.71011 -2.49671
Ar 2.55732 2.16511 6.05088
Ar -1.20189 1.64316 5.55214
Ar -2.76018 -2.31651 5.08602
Ar 1.06586 -1.42584 5.67718
Ar 1.61618 1.75451 -5.32369
Ar -2.29009 1.66446 -5.19549
Ar -2.16146 -2.26066 -4.95582
Ar 1.78149 -1.99424 -5.26815
38
Atoms. Timestep: 120000
Ar 1.78131 1.68289 0.0153813
Ar 5.58059 1.98435 -0.0689784
Ar 2.26899 5.57729 -0.0334233
Ar -1.79842 2.11398 0.266598
Ar -5.65508 1.56267 0.164999
Ar -1.69715 5.75425 -0.0275264
Ar -1.99753 -2.11588 0.148805
Ar -5.8665 -2.27224 0.023537
Ar -1.97018 -5.84799 0.0940952
Ar 1.71983 -1.82349 -0.0605367
Ar 6.0483 -1.85454 -0.0732965
Ar 1.61245 -5.75872 0.121323
Ar 0.0781949 -0.143693 2.72411
Ar 4.05944 0.030524 2.70471
Ar -3.58169 0.287441 2.6406
Ar -0.0719616 3.99516 2.7127
Ar 0.06933 -3.75863 3.02802
Ar 3.55666 3.74035 2.87113
Ar -3.95567 4.36357 2.61193
Ar -3.87034 -3.88744 2.84628
Ar 3.54764 -3.68899 2.45692
Ar -0.0843422 0.034868 -2.72536
Ar 4.02138 0.231024 -2.92711
Ar -3.81434 0.118997 -2.80421
Ar 0.0585154 3.64484 -2.62044
Ar -0.0607651 -3.73359 -2.78675
Ar 3.62455 3.82254 -2.91074
Ar -3.76941 3.69958 -2.58759
Ar -3.78776 -3.60853 -2.79746
Ar 3.7815 -4.14221 -2.4403
Ar 1.85906 1.69053 5.47306
Ar -1.93899 1.90504 5.4259
Ar -1.97439 -1.94328 5.23112
Ar 1.99606 -1.75913 5.41035
Ar 1.60511 1.88924 -5.79162
Ar -1.88303 2.01552 -5.33203
Ar -1.70715 -1.76914 -5.82139
Ar 2.21781 -2.03615 -5.16279
38
Atoms. Timestep: 130000
Ar 1.9849 1.88595 0.127255
Ar 5.63632 1.63808 -0.0144084
Ar 1.74226 5.75499 0.307371
Ar -1.86854 1.95067 -0.140764
Ar -5.76832 1.56236 -0.414684
Ar -1.93593 5.52368 -0.14664
Ar -2.04336 -1.81382 -0.00756156
Ar -5.74502 -2.10095 0.46189
Ar -2.16726 -5.77433 -0.0123803
Ar 1.77852 -1.96324 -0.138585
Ar 5.69373 -1.85554 -0.163881
Ar 1.62008 -5.78983 -0.0548949
Ar -0.162452 0.080774 2.60885
Ar 3.92482 -0.0758781 2.67332
Ar -3.76996 -0.00153739 2.76726
Ar -0.175403 3.76272 2.68438
Ar 0.0285804 -3.58987 2.76056
Ar 4.11324 3.72981 2.58423
Ar -4.05567 3.79945 2.61348
Ar -3.64217 -3.71784 2.77745
Ar 3.66069 -4.10237 2.5371
Ar -0.0160214 0.0338024 -2.62373
Ar 3.76184 -0.0980732 -2.76188
Ar -3.61733 0.0132421 -2.91293
Ar 0.406081 4.04257 -2.75782
Ar -0.109274 -3.67712 -2.60969
Ar 4.1241 4.16097 -2.43717
Ar -4.06723 4.06067 -2.7271
Ar -3.79248 -3.64752 -2.56507
Ar 3.91677 -3.99599 -2.51324
Ar 1.95763 2.12289 5.32748
Ar -1.7513 1.85864 5.25742
Ar -1.85904 -1.85208 5.62348
Ar 2.1106 -1.57032 5.41295
Ar 1.87645 1.74049 -5.34843
Ar -1.78995 2.11827 -5.21342
Ar -1.9405 -2.16519 -5.58644
Ar 1.94257 -2.04754 -5.37377
38
Atoms. Timestep: 140000
Ar 1.91112 1.97564 -0.0856232
Ar 5.74577 1.74698 -0.28571
Ar 1.64133 5.79676 -0.0623204
Ar -1.76228 1.76902 0.0494378
Ar -5.46256 2.07853 0.0998864
Ar -1.93349 5.49453 0.0430891
Ar -1.82565 -1.93664 0.0181944
Ar -5.68063 -1.90813 -0.028116
Ar -1.94491 -5.62833 -0.0224076
Ar 1.83321 -2.08289 -0.136195
Ar 5.80348 -2.0782 0.441784
Ar 1.73103 -5.61214 0.0851266
Ar 0.195958 -0.153645 2.81104
Ar 3.93317 0.262787 2.56421
Ar -3.68522 -0.0210017 2.63391
Ar 0.0802183 3.67758 2.82019
Ar -0.292614 -3.72747 2.78625
Ar 3.91523 4.05576 2.38857
Ar -3.57859 3.72767 2.7975
Ar -4.04151 -4.03655 2.47341
Ar 3.49746 -3.54926 2.85219
Ar -0.0804947 0.036209 -2.76345
Ar 3.8781 -0.141633 -2.70872
Ar -3.70835 0.0423503 -2.69293
Ar 0.0346929 3.66413 -2.80889
Ar -0.158069 -3.94195 -2.86259
Ar 3.71035 4.08937 -2.62337
Ar -3.72353 3.91662 -2.70022
Ar -3.86247 -3.77774 -2.79975
Ar 3.62121 -3.95773 -2.60973
Ar 2.33053 2.0351 5.54748
Ar -1.87581 1.81266 5.43516
Ar -2.08784 -1.99399 5.43864
Ar 1.8041 -1.69313 5.59363
Ar 1.97872 1.83411 -5.23508
Ar -1.80266 1.94334 -5.51099
Ar -2.11845 -1.79424 -5.5624
Ar 1.98145 -1.92345 -5.38119
38
Atoms. Timestep: 150000
Ar 1.91363 1.7091 0.0735006
Ar 5.92191 2.33462 -0.340429
Ar 1.36494 5.29511 -0.078517
Ar -1.69229 2.032 -0.254269
Ar -5.48978 2.05841 0.116603
Ar -2.27474 5.7566 0.299633
Ar -2.042 -1.72722 -0.0456214
Ar -5.69575 -1.74132 0.0219692
Ar -2.06826 -5.72233 -0.0930447
Ar 1.90053 -2.01955 -0.085058
Ar 5.77521 -1.59219 0.179202
Ar 1.80322 -5.8054 0.159087
Ar -0.0353501 -0.0557134 2.73812
Ar 3.58933 -0.10926 2.97542
Ar -3.6599 0.0451251 2.59212
Ar 0.00763489 3.67776 2.87017
Ar -0.121461 -3.79152 2.83696
Ar 3.89753 3.71519 2.49084
Ar -4.00974 3.62456 3.08803
Ar -3.94523 -3.75527 2.67336
Ar 3.62759 -3.66509 2.72465
Ar -0.0153692 -0.345706 -2.59717
Ar 3.69659 0.00115435 -2.72786
Ar -3.79921 0.273853 -2.86317
Ar 0.0431534 3.65671 -3.08426
Ar 0.0193317 -3.95397 -2.9518
Ar 3.73163 3.74806 -2.70046
Ar -3.73966 4.03251 -2.82579
Ar -3.5218 -3.56122 -2.79308
Ar 3.9324 -3.76275 -2.49729
Ar 2.40683 2.10451 5.82752
Ar -1.66053 1.83035 5.6731
Ar -2.07123 -1.88916 5.48475
Ar 1.93542 -2.07051 5.65342
Ar 1.85718 1.34616 -5.86097
Ar -1.95668 2.27318 -5.75075
Ar -1.85329 -1.35067 -5.5569
Ar 2.23023 -2.5951 -5.372
38
Atoms. Timestep: 160000
Ar 2.47625 1.86246 -0.134505
Ar 6.14783 2.12799 0.103843
Ar 1.78997 6.16216 -0.297309
Ar -1.84189 1.75913 0.0759955
Ar -6.05623 2.09826 0.513456
Ar -2.05052 5.72576 -0.0050272
Ar -1.75899 -2.07334 -0.122399
Ar -6.46986 -1.73054 -0.299138
Ar -1.59796 -6.10732 -0.0638684
Ar 2.13952 -2.17308 -0.287353
Ar 5.78626 -1.83478 0.0517645
Ar 2.4999 -5.82899 0.19038
Ar 0.159453 -0.356238 2.32669
Ar 3.98602 0.0559621 2.70826
Ar -3.7766 -0.0439138 2.43565
Ar 0.212542 3.91622 2.46579
Ar -0.163956 -4.21366 2.80023
Ar 3.91132 4.00307 2.57375
Ar -3.63959 3.90722 2.73039
Ar -4.26718 -3.62663 2.0602
Ar 3.52923 -3.5821 3.11099
Ar 0.159215 -0.0227852 -2.62442
Ar 3.89743 0.00572247 -2.78403
Ar -3.70365 -0.0298707 -2.41927
Ar 0.161276 3.84654 -2.63895
Ar -0.0808498 -3.83914 -2.58383
Ar 4.22269 4.13517 -2.45169
Ar -3.57089 3.58579 -2.48873
Ar -4.09913 -3.91792 -2.37002
Ar 3.69228 -4.06338 -2.99161
Ar 1.95633 2.16961 5.30486
Ar -1.6603 1.88967 5.00794
Ar -2.6444 -2.21016 5.24391
Ar 1.18964 -1.68645 5.71349
Ar 2.23088 2.35901 -5.18877
Ar -1.77452 1.65854 -5.14655
Ar -2.50949 -2.02722 -5.15227
Ar 1.51998 -1.89975 -5.36785
38
Atoms. Timestep: 170000
Ar 1.73304 1.92693 0.214496
Ar 5.61787 1.53814 0.166483
Ar 1.79503 5.77272 0.287288
Ar -1.81098 1.72919 0.0764718
Ar -5.48133 2.28996 -0.134481
Ar -2.44265 5.2547 -0.0820729
Ar -1.82142 -1.94553 -0.0991348
Ar -5.63341 -1.60473 -0.343807
Ar -2.17991 -5.71143 -0.0977869
Ar 1.89541 -1.89096 -0.0940282
Ar 5.46291 -2.18397 -0.454834
Ar 2.4651 -5.45153 0.379824
Ar -0.0925827 0.122447 2.6906
Ar 3.59341 -0.45247 2.82492
Ar -3.84988 0.224161 2.52405
Ar -0.236788 4.06751 2.63293
Ar 0.404758 -3.36288 2.87622
Ar 3.9487 3.86185 2.60332
Ar -3.70661 3.91349 3.1085
Ar -3.5226 -3.85959 2.74391
Ar 4.79395 -4.01466 3.05887
Ar 0.0191946 0.0328772 -2.59292
Ar 3.72864 -0.138654 -2.99534
Ar -3.6493 -0.179893 -2.98883
Ar -0.0692386 3.9362 -2.47028
Ar -0.183906 -3.79751 -2.88681
Ar 3.89744 3.8223 -2.19455
Ar -3.85774 3.4903 -3.27268
Ar -3.98234 -3.70838 -2.78698
Ar 3.24817 -3.98365 -3.04179
Ar 1.78975 1.92266 5.15048
Ar -1.86218 2.14138 5.56686
Ar -1.91147 -1.69019 5.41926
Ar 1.98391 -1.78492 6.02376
Ar 2.04676 2.23249 -5.07981
Ar -1.6378 1.54091 -5.47707
Ar -2.08739 -2.16558 -5.80891
Ar 1.59747 -1.89267 -5.44614
38
Atoms. Timestep: 180000
Ar 1.76598 1.85924 0.127788
Ar 5.53247 1.71593 0.00610662
Ar 1.96978 5.58372 0.0658793
Ar -1.93947 1.89807 -0.0805187
Ar -5.72981 1.77146 -0.189143
Ar -1.83706 5.58321 0.115007
Ar -1.9795 -1.81661 0.151787
Ar -5.53582 -2.07883 -0.010576
Ar -1.708 -5.50909 -0.319006
Ar 1.83965 -1.99011 0.229192
Ar 5.60997 -1.90415 -0.0363054
Ar 1.98176 -5.58019 -0.0142639
Ar -0.0846734 0.112747 2.85738
Ar 3.80818 0.0254759 2.73778
Ar -4.03041 0.0945263 2.74317
Ar 0.273914 3.99956 3.00122
Ar 0.172297 -3.66954 2.93245
Ar 3.8717 3.68349 2.71506
Ar -4.05665 3.87734 2.32908
Ar -3.50939 -3.93872 3.3342
Ar 3.96239 -3.92344 2.77532
Ar -0.0688122 -0.121696 -2.52494
Ar 3.47264 -0.160787 -2.44644
Ar -3.92055 -0.0170064 -2.86385
Ar -0.0434093 3.76306 -2.77915
Ar 0.0239096 -3.75759 -2.99035
Ar 4.11852 3.89058 -2.73485
Ar -3.85082 3.71141 -2.72042
Ar -3.89201 -3.85865 -3.17909
Ar 3.7282 -3.88842 -2.83668
Ar 1.93571 1.95419 5.56152
Ar -2.21452 2.13594 5.23835
Ar -1.91229 -1.63077 5.60862
Ar 2.18766 -1.99264 5.49121
Ar 1.76051 1.56833 -5.31179
Ar -2.1467 2.11046 -5.67354
Ar -1.73114 -1.42891 -5.66268
Ar 2.17777 -2.07055 -5.64753
38
Atoms. Timestep: 190000
Ar 1.85244 1.78048 -0.130576
Ar 5.82169 1.9545 0.268349
Ar 1.86406 5.52843 -0.120905
Ar -1.818 1.73511 -0.117879
Ar -6.01195 2.26805 -0.19437
Ar -2.05482 5.4845 0.161328
Ar -1.82488 -1.90036 -0.28857
Ar -5.52696 -1.48708 0.22395
Ar -1.74178 -5.77201 0.0657588
Ar 1.96297 -1.94467 0.0557209
Ar 5.95738 -1.76131 0.231822
Ar 2.08609 -5.89198 0.173363
Ar -0.113208 0.0744874 2.69889
Ar 3.68604 -0.0879294 2.67057
Ar -3.75361 0.214771 2.79975
Ar 0.109953 3.6841 2.76085
Ar -0.0069029 -3.68019 2.35392
Ar 4.02967 3.79964 2.91874
Ar -3.88351 4.01989 2.94921
Ar -3.68296 -3.62133 2.41292
Ar 3.71588 -3.89213 2.92085
Ar 0.249589 0.253893 -3.10981
Ar 3.88574 -0.471608 -2.78543
Ar -3.80806 0.0728832 -2.84433
Ar -0.270107 3.87346 -2.63513
Ar 0.214437 -3.74329 -2.86256
Ar 3.79983 3.25918 -2.81115
Ar -3.89634 4.02336 -2.73849
Ar -4.06788 -3.79575 -2.51436
Ar 4.02647 -4.1669 -2.25826
Ar 1.79037 2.08802 5.60293
Ar -1.99777 1.58206 5.86698
Ar -1.87466 -2.03912 5.37405
Ar 1.84176 -1.92966 5.37064
Ar 1.75887 2.42591 -5.91916
Ar -2.01559 1.9508 -5.65771
Ar -2.18067 -1.96694 -5.35666
Ar 1.8784 -1.92028 -5.53526
38
Atoms. Timestep: 200000
Ar 1.75655 1.84229 0.18985
Ar 6.37256 1.96149 -0.191295
Ar 1.75484 5.54669 -0.0348451
Ar -1.9121 1.8337 0.188678
Ar -5.46637 2.03209 0.00450509
Ar -1.85613 5.51206 -0.133767
Ar -2.01632 -1.88261 0.0893531
Ar -5.88384 -1.78874 -0.0473469
Ar -1.78691 -5.74403 -0.0380999
Ar 1.69022 -1.89043 -0.108734
Ar 5.50312 -2.06778 -0.00554418
Ar 1.98255 -5.71807 -0.0615485
Ar -0.108994 -0.106353 2.67154
Ar 3.82377 0.277496 2.50266
Ar -3.9498 -0.138734 2.77248
Ar 0.139919 3.97824 2.7822
Ar -0.0762848 -4.1006 2.69034
Ar 4.12339 3.88181 2.48395
Ar -3.7577 3.79464 2.97347
Ar -4.25342 -3.92001 2.64246
Ar 3.66781 -3.61713 3.052
Ar -0.112903 0.11203 -2.56734
Ar 3.62976 0.106566 -2.71953
Ar -3.84587 0.0383508 -2.79005
Ar 0.208658 3.94912 -3.09019
Ar 0.0438808 -3.89145 -2.502
Ar 4.06485 3.86948 -2.54032
Ar -3.79338 3.81762 -2.63498
Ar -3.81557 -4.13664 -2.78467
Ar 3.6166 -3.63147 -2.72094
Ar 2.21259 2.04364 5.36562
Ar -1.68229 2.04045 5.60176
Ar -2.30643 -2.41705 5.25996
Ar 1.5412 -1.56284 5.58402
Ar 2.03442 1.92879 -5.66601
Ar -1.81464 1.76508 -5.53481
Ar -1.77483 -1.88718 -5.2833
Ar 2.04912 -1.82955 -5.39955
38
Atoms. Timestep: 210000
Ar 1.90937 1.82837 0.100459
Ar 5.81485 1.77016 -0.0413635
Ar 2.07909 5.4886 0.0305679
Ar -2.07271 1.82582 0.116871
Ar -5.76405 2.28082 0.0596407
Ar -1.92575 5.45577 0.0035942
Ar -1.84879 -1.87089 -0.0394552
Ar -5.83552 -1.58 0.0221862
Ar -1.55846 -5.85061 0.0467041
Ar 1.83113 -1.88731 0.129935
Ar 5.6891 -2.04874 0.203193
Ar 2.24405 -5.46795 -0.286052
Ar -0.228305 -0.0644988 2.77295
Ar 3.57941 -0.086899 2.75105
Ar -4.08532 0.229031 2.8127
Ar 0.126203 3.71397 2.64273
Ar -0.124282 -3.6708 2.77257
Ar 3.92254 3.59779 2.72216
Ar -3.94277 3.9327 2.9685
Ar -3.65578 -3.5709 2.73294
Ar 3.7469 -3.77224 2.75036
Ar -0.0671156 -0.0180955 -2.59149
Ar 3.64411 0.0568305 -2.67897
Ar -3.71537 -0.0637907 -2.86586
Ar -0.0182182 3.61516 -2.68332
Ar -0.0605524 -3.72416 -2.88456
Ar 3.99188 3.75236 -2.79819
Ar -3.76149 3.63108 -2.87267
Ar -3.6935 -3.80161 -2.64504
Ar 4.15573 -3.61151 -2.84467
Ar 1.73095 2.07322 5.49795
Ar -1.93735 1.83575 5.34995
Ar -1.88209 -1.9521 5.70805
Ar 1.78304 -1.71474 5.44071
Ar 2.05697 1.88421 -5.68399
Ar -1.74002 1.61043 -5.63191
Ar -1.96205 -2.11268 -5.47939
Ar 1.57616 -1.71153 -5.60883
38
Atoms. Timestep: 220000
Ar 1.92931 1.79285 0.203461
Ar 5.8196 1.67372 -0.0399266
Ar 1.70726 5.54445 -0.0944262
Ar -1.75388 2.15252 -0.0388612
Ar -6.02474 1.74125 -0.314512
Ar -1.94845 5.82459 -0.00898996
Ar -1.67884 -1.63509 0.0338198
Ar -5.68467 -1.90789 -0.018936
Ar -2.22359 -5.41803 0.0262609
Ar 2.01283 -2.03017 0.118655
Ar 5.65059 -1.98427 -0.22008
Ar 1.82135 -5.71903 -0.0687305
Ar 0.0255859 0.148071 2.8428
Ar 4.13355 -0.0523054 2.8512
Ar -3.75913 0.0145841 2.67825
Ar -0.0789024 3.66318 2.7336
Ar -0.0467236 -3.85022 2.70689
Ar 3.99116 3.61864 2.53946
Ar -3.90909 3.72223 2.53275
Ar -3.74768 -3.66398 2.62582
Ar 3.85213 -4.0644 2.54582
Ar 0.258622 -0.0178515 -2.66256
Ar 3.85491 0.066311 -2.67793
Ar -3.56989 0.0750126 -2.49565
Ar -0.092305 3.81093 -2.63271
Ar 0.0459743 -3.81792 -2.48827
Ar 3.54778 3.6518 -2.70708
Ar -3.9461 3.79428 -2.67165
Ar -3.95214 -3.74256 -2.861
Ar 3.77439 -3.98568 -2.59868
Ar 1.75854 2.06828 5.74703
Ar -2.24092 2.1203 5.3976
Ar -1.78603 -1.77234 5.24377
Ar 2.00087 -1.87748 5.45536
Ar 1.45807 1.97279 -5.35365
Ar -2.15028 2.16893 -5.46791
Ar -1.34753 -1.84011 -5.30601
Ar 2.30035 -2.2444 -5.55499
38
Atoms. Timestep: 230000
Ar 1.89245 1.97338 -0.171346
Ar 5.5714 1.64553 -0.065592
Ar 1.90613 5.89804 -0.0835785
Ar -1.79111 1.91475 -0.0150352
Ar -5.7962 1.7478 0.0218671
Ar -1.79465 5.90067 0.293894
Ar -1.81597 -1.85792 -0.193918
Ar -5.66382 -1.7854 -0.183335
Ar -1.65225 -5.64745 -0.00596219
Ar 2.10363 -2.02232 0.249056
Ar 5.90047 -2.05566 0.293792
Ar 1.96253 -5.71414 0.22829
Ar -0.0349261 -0.0915969 2.42152
Ar 3.68479 0.0393455 2.78144
Ar -3.8704 -0.242131 2.63309
Ar 0.216703 3.58061 2.53721
Ar -0.222364 -3.59805 2.6603
Ar 3.98935 3.58446 2.60165
Ar -3.70923 3.61316 2.607
Ar -4.05466 -3.84214 2.53719
Ar 3.57393 -3.49376 3.09032
Ar 0.0295213 0.00160412 -2.75141
Ar 3.80824 -0.165233 -2.79243
Ar -3.91294 0.25491 -2.82977
Ar -0.0827839 3.86604 -2.68303
Ar 0.366512 -3.74105 -2.46365
Ar 3.69087 3.68255 -2.87085
Ar -3.83807 4.01514 -2.45303
Ar -3.85262 -4.01761 -2.69395
Ar 4.21434 -3.95023 -2.59357
Ar 2.17106 2.07277 5.41064
Ar -1.71499 1.43827 5.12643
Ar -2.2314 -2.2406 5.6336
Ar 1.3958 -1.4297 5.47603
Ar 1.54311 2.11858 -5.54158
Ar -2.15645 2.23778 -5.45693
Ar -1.85588 -1.8535 -5.23969
Ar 2.03189 -1.8359 -5.51468
38
Atoms. Timestep: 240000
Ar 1.954 1.78661 0.0235623
Ar 5.5269 1.98649 -0.366119
Ar 2.23073 5.47968 -0.0744514
Ar -1.92315 2.03901 0.0563656
Ar -5.97795 1.82251 0.0219923
Ar -1.72122 5.69351 0.0880616
Ar -1.81345 -1.79731 0.183209
Ar -5.6103 -1.82487 -0.278589
Ar -1.71472 -5.5977 -0.20563
Ar 1.88285 -1.95583 0.141158
Ar 5.78982 -1.67967 0.0637064
Ar 1.9635 -5.91502 0.402757
Ar -0.0205512 -0.105511 2.79498
Ar 3.92618 -0.0083166 2.95079
Ar -3.91986 0.0850569 2.52743
Ar 0.149057 3.74125 2.77931
Ar -0.00442534 -3.84685 2.65386
Ar 3.88913 3.75646 2.85931
Ar -4.12947 3.77144 2.55161
Ar -3.84177 -3.97763 2.44059
Ar 3.82592 -3.68143 2.72681
Ar 0.0145218 -0.0549014 -2.51978
Ar 3.73393 -0.215027 -2.73212
Ar -3.8038 0.202619 -2.78652
Ar -0.0516801 3.83483 -2.71398
Ar 0.193604 -3.75486 -2.6685
Ar 3.53295 3.71935 -3.21626
Ar -4.03433 4.08543 -2.21015
Ar -3.56541 -3.61481 -2.89376
Ar 3.91537 -3.91801 -2.29053
Ar 1.93832 1.86432 5.46002
Ar -2.0871 1.84649 5.2727
Ar -1.89599 -1.94976 5.38296
Ar 1.75637 -1.88036 5.33648
Ar 1.53409 1.57805 -5.41698
Ar -2.09187 2.35394 -5.49277
Ar -1.68838 -1.76487 -5.49596
Ar 2.14016 -2.10331 -5.35556
38
Atoms. Timestep: 250000
Ar 1.95697 1.91788 -0.0634201
Ar 5.60187 2.16393 0.453245
Ar 2.28778 5.58051 0.0870566
Ar -1.88431 1.84813 -0.0591736
Ar -6.11581 2.21003 -0.269828
Ar -1.51641 5.55757 -0.0417649
Ar -1.94694 -1.83647 0.168117
Ar -5.91809 -2.20491 0.0444324
Ar -2.02678 -5.97175 0.24946
Ar 1.92347 -1.92939 -0.0293299
Ar 5.65237 -1.63819 -0.0634292
Ar 1.92627 -5.73184 -0.131458
Ar 0.0601694 0.12612 2.76922
Ar 3.69194 -0.0238063 2.84423
Ar -3.81737 0.0410615 2.56851
Ar 0.00524938 3.80649 2.60006
Ar 0.127702 -4.05944 2.64416
Ar 3.68331 3.58673 3.30669
Ar -3.81132 3.99428 2.39778
Ar -3.6169 -3.73512 2.72568
Ar 4.11752 -3.84145 2.61975
Ar 0.0773085 -0.115255 -2.55035
Ar 4.04681 0.33018 -2.91973
Ar -3.75701 -0.00618229 -2.33004
Ar 0.101308 3.70861 -3.05719
Ar -0.150464 -3.82217 -2.66401
Ar 4.06513 4.01872 -2.93983
Ar -3.47843 3.89154 -2.68182
Ar -3.83056 -4.03283 -2.41823
Ar 3.95604 -3.35692 -2.86902
Ar 1.39543 1.60397 5.72416
Ar -2.58312 2.05064 5.16561
Ar -1.76801 -2.01933 5.3106
Ar 2.03224 -2.31613 5.10599
Ar 2.06868 2.00434 -5.70952
Ar -1.71196 1.86632 -5.39155
Ar -2.43945 -1.76729 -5.28221
Ar 1.59739 -1.89759 -5.31286
38
Atoms. Timestep: 260000
Ar 2.13208 1.9867 -0.00474932
Ar 5.79404 1.67434 0.232771
Ar 2.30044 5.8463 0.191399
Ar -1.82331 2.12404 0.317507
Ar -5.65237 2.24904 0.0962881
Ar -2.18973 5.92859 0.0829848
Ar -1.71934 -1.68627 0.0683055
Ar -6.01307 -1.74338 -0.160735
Ar -1.27199 -6.19598 -0.528154
Ar 1.9846 -1.83476 -0.128532
Ar 5.46353 -2.4892 0.186468
Ar 2.60437 -5.52649 0.125893
Ar 0.242306 -0.109227 2.55002
Ar 3.84133 -0.0158297 2.82537
Ar -3.97533 0.0822589 2.59063
Ar -0.163107 4.29239 2.7618
Ar 0.235973 -3.81509 2.62227
Ar 3.88424 3.55571 2.85658
Ar -4.02231 4.10043 2.83877
Ar -3.83847 -3.86667 1.99447
Ar 3.73112 -3.94178 3.24963
Ar 0.0133585 0.211217 -2.73777
Ar 3.93418 -0.240661 -2.71327
Ar -3.83447 0.214197 -2.55643
Ar -0.0275 3.98194 -2.38294