38
Atoms. Timestep: 0
Ar 1.668 1.873 0
Ar 5.651 1.903 0.003
Ar 1.878 5.656 -0.01
Ar -1.867 1.863 -0.007
Ar -5.65 1.873 -0.014
Ar -1.898 5.645 -0.014
Ar -1.857 -1.873 0
Ar -5.64 -1.903 -0.003
Ar -1.867 -5.656 0.01
Ar 1.878 -1.863 0.007
Ar 5.661 -1.873 0.014
Ar 1.909 -5.645 0.014
Ar 0.002 0.007 2.642
Ar 3.751 0.017 2.659
Ar -3.75 -0.003 2.646
Ar -0.008 3.756 2.646
Ar 0.012 -3.745 2.659
Ar 3.761 3.786 2.656
Ar -3.778 3.766 2.646
Ar -3.757 -3.773 2.663
Ar 3.781 -3.752 2.673
Ar 0.009 -0.007 -2.642
Ar 3.761 0.003 -2.646
Ar -3.74 -0.017 -2.659
Ar -0.002 3.746 -2.659
Ar 0.019 -3.756 -2.646
Ar 3.768 3.773 -2.663
Ar -3.771 3.752 -2.673
Ar -3.75 -3.786 -2.656
Ar 3.788 -3.766 -2.646
Ar 1.871 1.897 5.329
Ar -1.888 1.886 5.325
Ar -1.878 -1.873 5.332
Ar 1.881 -1.863 5.339
Ar 1.888 1.873 -5.332
Ar -1.871 1.863 -5.339
Ar -1.861 -1.897 -5.329
Ar 1.898 -1.886 -5.325
38
Atoms. Timestep: 10000
Ar 1.10616 3.24951 -0.760035
Ar 6.7816 1.79824 1.33422
Ar 1.44165 7.15582 -2.81247
Ar -2.08952 1.09624 -0.197636
Ar -8.2646 1.55445 -1.12624
Ar -2.41725 5.04637 -1.18559
Ar -2.69579 -3.01546 0.116205
Ar -4.82349 -5.22694 2.0056
Ar -6.89296 -3.74436 -1.3224
Ar 1.18191 -2.22895 0.597471
Ar 5.07903 -2.78237 1.10186
Ar 3.24562 -6.02505 -1.65862
Ar 0.857911 1.16533 2.62697
Ar 4.47605 0.985391 3.87132
Ar -2.37779 0.0242065 3.50884
Ar 0.477994 6.47544 0.969888
Ar -0.346413 -5.75252 -0.463553
Ar 3.08818 4.22985 2.3306
Ar -4.89579 3.3038 0.979143
Ar -0.763372 -4.27313 2.98912
Ar 2.41712 -5.78995 1.99093
Ar 0.191308 -0.346941 -2.06421
Ar 3.47759 0.581689 0.00660015
Ar -5.05874 -0.581081 1.10111
Ar 2.85032 1.61017 -4.07796
Ar -0.0985436 -3.91476 -3.81913
Ar 4.62599 4.41318 -0.951993
Ar -4.64763 1.91348 -2.7052
Ar -3.98694 -5.1116 -4.42286
Ar 3.61288 -2.17787 -2.17241
Ar 1.52204 3.01234 5.93975
Ar -1.5722 3.84616 2.70628
Ar 0.492976 -0.44543 7.16299
Ar 2.56471 -2.05908 3.79036
Ar 6.09862 0.988079 -2.49644
Ar -1.27536 2.68607 -3.84138
Ar -3.19436 -1.4013 -3.51748
Ar -0.186902 -0.258012 -5.53364
38
Atoms. Timestep: 20000
Ar 0.985339 3.25907 -0.78494
Ar 6.67192 0.914613 1.98492
Ar 1.10141 5.24563 -3.65883
Ar -2.05991 1.4976 -0.461328
Ar -7.70336 1.18668 0.420906
Ar -1.92303 5.45218 -1.07291
Ar -1.45947 -2.26455 0.131784
Ar -3.96564 -4.12547 3.06815
Ar -4.80891 -0.733882 0.29519
Ar 1.98138 -3.20054 -0.67865
Ar 3.8687 -1.67888 2.24957
Ar 5.73348 -2.40115 -0.560339
Ar 0.756139 0.551024 1.69043
Ar 2.08599 0.406328 5.08294
Ar -2.25715 -0.530771 3.07982
Ar 2.2864 8.34314 -1.97894
Ar 1.74862 -6.76853 -3.79424
Ar 3.08773 3.80321 2.68561
Ar -4.58994 2.5149 2.18646
Ar -0.622963 -6.17026 0.670941
Ar 3.32434 -5.50189 1.94653
Ar 0.494121 -0.393573 -2.18585
Ar 3.747 0.508211 -0.777953
Ar -6.09618 -1.16497 3.63426
Ar 2.51009 1.80249 -4.08134
Ar -0.858611 -4.43489 -2.94549
Ar 4.76595 4.47699 -1.04415
Ar -5.37899 1.91479 -2.76169
Ar -4.37423 -4.15746 -1.19681
Ar 3.39936 -2.32296 -3.9766
Ar -0.623411 2.83794 5.90873
Ar -1.2796 4.17488 2.33815
Ar -2.75146 -0.0858127 6.64748
Ar 0.277911 -3.49507 3.11835
Ar 6.29764 0.959493 -3.18483
Ar -1.29429 2.4268 -3.76767
Ar -3.06776 -1.02514 -2.95845
Ar -0.0066002 -1.8192 -5.26924
38
Atoms. Timestep: 30000
Ar 0.855996 3.56238 -0.593793
Ar 6.21277 -1.19199 0.223374
Ar 0.447583 5.10903 -3.76843
Ar -2.03867 1.48367 -0.699719
Ar -8.77526 0.931443 3.2267
Ar -2.94161 4.85231 -1.36247
Ar -1.45402 -2.06421 -0.163464
Ar -3.25553 -4.21461 2.56168
Ar -5.38362 -0.905359 0.320945
Ar 2.77643 -2.25408 -0.478599
Ar 3.96771 -0.248723 3.0599
Ar 5.93979 -3.96871 -2.38712
Ar 0.687474 0.455789 1.34477
Ar 0.473986 1.02091 5.03476
Ar -2.56786 -0.121181 2.70593
Ar 4.42364 4.72958 -1.70867
Ar 2.5286 -5.40097 -2.15721
Ar 3.11443 3.92749 2.39305
Ar -4.71591 2.49381 1.66242
Ar 0.65045 -5.43662 1.65361
Ar 3.78613 -4.06467 2.33183
Ar 0.67512 0.0747707 -2.32975
Ar 3.9058 1.09965 -0.691421
Ar -5.75912 -0.913476 4.16478
Ar 2.71875 2.31076 -4.07019
Ar -0.247147 -3.5366 -3.40156
Ar 6.9226 2.69827 1.0508
Ar -5.70806 2.17817 -2.05097
Ar -3.50934 -4.10387 -2.17015
Ar 3.1922 -1.94059 -4.13497
Ar -3.55263 2.49704 5.42547
Ar -1.04819 3.52952 2.86487
Ar -2.84512 -1.07289 6.43243
Ar -0.186089 -2.47574 3.46341
Ar 6.01689 0.546713 -3.6631
Ar -1.68951 2.25144 -4.3718
Ar -3.49271 -0.941799 -3.44896
Ar -0.123972 -0.89565 -6.26838
38
Atoms. Timestep: 40000
Ar 0.202005 3.59017 -1.31538
Ar 6.09367 -1.45128 -0.753707
Ar 0.117124 6.02476 -4.12672
Ar -2.74295 1.098 0.195932
Ar -5.16809 2.66022 2.75585
Ar -3.0939 4.74514 -1.16528
Ar -1.2539 -2.30736 0.754759
Ar -4.47005 -3.20284 2.54478
Ar -5.11087 -1.87889 -0.816178
Ar 2.51226 -2.15726 -0.408475
Ar 4.3296 0.124773 2.44923
Ar 4.40798 -4.78765 -2.05697
Ar 0.622836 0.603292 1.66922
Ar 1.62968 0.028401 5.39526
Ar -2.31393 0.351262 3.97193
Ar 3.32801 4.9072 -2.1837
Ar 1.12116 -5.47288 0.273588
Ar 2.75811 3.85679 1.41403
Ar -4.01441 6.05595 2.33672
Ar -1.92452 -6.00414 2.54789
Ar 5.56857 -4.01214 2.05616
Ar 0.130737 -0.0911889 -1.86076
Ar 3.37435 1.21093 -1.16815
Ar -7.56119 -0.62839 1.84156
Ar 2.0938 2.40324 -4.50683
Ar 0.503962 -3.82758 -2.90233
Ar 6.47956 2.25417 0.166457
Ar -5.39356 1.54993 -2.62101
Ar -2.2052 -5.55185 -1.26401
Ar 4.18615 -0.795892 -3.9239
Ar -4.99935 0.907059 6.69112
Ar -1.04075 3.8078 2.34673
Ar -1.72477 -3.29948 5.23334
Ar 1.84344 -3.10945 3.2533
Ar 5.79161 2.77314 -3.65906
Ar -1.7835 2.14488 -4.09928
Ar -2.87337 -1.75855 -3.67421
Ar 0.581684 -0.759282 -5.39192
38
Atoms. Timestep: 50000
Ar -0.11138 3.15427 -0.817892
Ar 5.98703 -1.01121 -1.76043
Ar -0.771093 5.20077 -3.87483
Ar -2.82901 0.494246 0.563108
Ar -4.55362 1.84854 3.85568
Ar -3.78374 4.32071 0.416524
Ar -0.62909 -2.38245 1.62493
Ar -4.34845 -2.24769 2.16392
Ar -4.95266 -0.981145 -2.02297
Ar 2.69369 -2.84206 -0.116474
Ar 4.75595 -0.160251 1.85208
Ar 6.93352 -4.67592 0.135383
Ar 1.29592 0.950892 1.95505
Ar 1.51677 1.81844 5.50672
Ar -1.85932 -0.62685 4.67762
Ar 2.84063 5.18935 -1.98551
Ar 0.364299 -5.80519 0.455046
Ar 2.5822 4.32326 1.52595
Ar 0.0942719 7.48737 -0.782823
Ar -3.06886 -6.11555 1.70051
Ar 5.79385 -4.03162 3.84224
Ar -0.236509 -0.999207 -1.80986
Ar 2.89352 1.11222 -1.1449
Ar -7.2357 0.409118 1.19989
Ar 0.810582 1.75949 -4.4889
Ar 1.43824 -4.15897 -3.54698
Ar 5.75725 3.12239 -0.254531
Ar -6.14939 2.74794 -2.21885
Ar -2.41143 -3.88783 -1.33833
Ar 3.42979 -1.22166 -4.29652
Ar -6.58904 -1.27146 4.86898
Ar -1.48293 3.18354 2.92323
Ar -0.560385 -4.45374 4.78349
Ar 2.02319 -1.73614 4.34538
Ar 5.00701 2.22228 -3.91425
Ar -2.69352 2.08052 -2.99571
Ar -2.55883 -1.5151 -4.5401
Ar 0.609234 -1.3003 -6.48587
38
Atoms. Timestep: 60000
Ar -0.326579 3.07881 -0.878351
Ar 6.03945 -1.283 -0.901406
Ar -2.67686 5.21441 -3.28509
Ar -2.93229 1.15071 0.685099
Ar -5.6073 3.02339 2.38511
Ar -3.11832 5.22767 0.702098
Ar -1.49121 -2.37141 0.0182319
Ar -4.5702 -4.03727 1.44295
Ar -5.25021 -1.6255 -1.31569
Ar 2.54316 -2.29602 -0.268261
Ar 4.34086 0.511485 1.85321
Ar 5.61668 -3.45156 1.91462
Ar 0.553493 0.272687 1.29718
Ar 1.84235 1.84601 4.51051
Ar -1.95282 -0.624643 3.80826
Ar 2.35103 5.31234 -1.94618
Ar 2.28271 -5.7218 1.00642
Ar 2.50738 3.64219 1.30514
Ar 0.31746 6.90177 0.782574
Ar -1.52086 -6.06345 0.543652
Ar 3.08775 -5.44598 4.67039
Ar 0.456049 -0.121933 -2.5451
Ar 3.39271 1.47442 -1.41772
Ar -5.78858 -0.551007 2.578
Ar 0.0226361 3.11362 -4.46811
Ar 0.391024 -4.27926 -2.34936
Ar 7.19601 2.57193 -1.09713
Ar -6.24948 2.40283 -1.42359
Ar -3.22453 -4.7815 -2.07834
Ar 3.8588 -2.42949 -3.71879
Ar -3.42143 2.23661 5.37853
Ar -0.970914 3.36032 3.03002
Ar -0.824866 -4.13635 3.54726
Ar 2.3386 -1.80595 3.80407
Ar 5.63006 0.924774 -4.37555
Ar -2.68312 1.25717 -2.86757
Ar -2.30559 -2.22849 -4.23218
Ar 0.148923 -0.267524 -6.0949
38
Atoms. Timestep: 70000
Ar 0.158084 4.77756 -0.926787
Ar 6.13615 -1.6578 -2.91623
Ar -2.43456 3.08945 -3.3969
Ar -2.46382 1.30573 0.117041
Ar -5.59857 0.424328 1.91347
Ar -3.61536 5.06453 0.153201
Ar -2.50706 -2.20548 -0.255993
Ar -5.11347 -3.19348 2.39377
Ar -6.10142 -2.54444 -1.6258
Ar 2.94392 -3.46389 -1.75465
Ar 3.62141 0.0347067 3.23022
Ar 5.29078 -2.78087 1.00748
Ar 1.05495 1.78658 1.17815
Ar 0.0983334 2.03029 4.84072
Ar -1.62573 -0.772972 2.81985
Ar 3.98158 4.0442 -0.938094
Ar 2.55058 -5.4261 2.00107
Ar 2.89485 4.10418 3.34047
Ar 2.25764 7.40707 1.2435
Ar -0.26308 -5.08931 -0.902216
Ar 1.16728 -2.48635 5.27933
Ar 0.0976786 0.0393069 -2.06291
Ar 3.71229 0.129188 -0.708196
Ar -3.19457 0.0691792 5.89236
Ar 1.59993 2.93872 -3.54905
Ar 0.139881 -2.94583 -4.04737
Ar 6.95133 0.901968 0.602911
Ar -5.81336 1.49009 -1.67823
Ar -4.06789 -5.55519 -0.0617701
Ar 3.21934 -0.583078 -5.07055
Ar -3.30284 2.7827 3.44098
Ar -0.509545 5.48224 2.75963
Ar -1.07194 -4.44165 3.16038
Ar 1.28834 -2.04759 1.08938
Ar 5.41987 2.03821 -3.7142
Ar -3.48147 -0.655661 -3.37363
Ar -3.06446 -4.39011 -3.75692
Ar -0.35311 0.300586 -5.72441
38
Atoms. Timestep: 80000
Ar -1.22423 4.13651 -2.11802
Ar 5.25653 -2.86003 -0.426814
Ar -1.76624 2.04597 -5.40399
Ar -2.85177 1.50258 0.212186
Ar -6.65537 1.67779 0.228243
Ar -3.7368 4.98059 1.36097
Ar -1.45028 -1.88575 -0.532872
Ar -3.84944 -2.78222 4.03535
Ar -4.90605 -1.55673 0.301805
Ar 2.01715 -2.63822 -2.40101
Ar 3.97904 0.589122 2.68392
Ar 4.46672 -3.34515 3.13107
Ar 0.776507 1.87878 1.05845
Ar 1.13637 1.28364 4.82647
Ar -1.26367 -0.708984 2.78097
Ar 2.73249 4.38615 -0.843443
Ar 2.67352 -5.49369 0.548293
Ar 2.86351 4.33739 3.22051
Ar -0.129084 5.79026 1.23658
Ar -0.403122 -5.13541 -1.2187
Ar 1.33078 -2.38977 4.9553
Ar 0.159297 0.665698 -2.29808
Ar 3.56581 0.556664 -1.06911
Ar -2.16935 -0.0510127 6.32093
Ar 1.78989 3.59433 -4.63301
Ar -1.00392 -1.89673 -4.55517
Ar 7.10213 0.262411 -1.2115
Ar -4.84277 3.5979 -2.42772
Ar -3.73064 -5.00002 0.859402
Ar 5.3986 -1.60389 -4.09117
Ar -4.64816 0.65053 3.32793
Ar -1.72095 2.92388 3.64181
Ar -0.468419 -4.40855 2.42883
Ar 1.87369 -1.78008 1.04387
Ar 5.36554 2.38396 -3.88351
Ar -3.65061 0.0764823 -3.04276
Ar -4.25577 -3.73648 -2.68861
Ar 2.24106 -0.0469496 -5.3574
38
Atoms. Timestep: 90000
Ar -2.12555 3.52518 -2.60559
Ar 5.27817 -2.55365 -0.516262
Ar -2.22926 0.811018 -6.3775
Ar -2.64516 1.27487 0.590146
Ar -5.7374 2.74454 -0.711097
Ar -3.74711 4.62382 1.73481
Ar -2.26548 -2.15191 -0.100781
Ar -3.85218 -2.91742 3.99046
Ar -5.73568 -1.0722 1.05631
Ar 2.43654 -2.72271 -2.98353
Ar 4.59756 0.625848 1.81316
Ar 3.53577 -2.475 3.10346
Ar 1.0192 1.84607 1.26823
Ar 2.0652 0.950744 4.89429
Ar -0.761111 -0.78378 3.08822
Ar 4.07708 3.95352 0.130702
Ar 2.63261 -5.35236 0.542752
Ar 2.28153 4.85774 3.83821
Ar 0.164208 5.37745 0.757873
Ar -0.533036 -4.95346 -1.56076
Ar 0.397373 -2.87075 5.98735
Ar -0.270875 0.381037 -2.40609
Ar 3.29625 0.671872 -1.82475
Ar -1.60132 0.390956 6.60226
Ar 1.65174 3.64301 -2.61248
Ar -0.909141 -2.77532 -4.56057
Ar 7.27502 0.201788 -1.35748
Ar -5.46778 3.35444 -4.2589
Ar -3.60258 -5.79251 0.732262
Ar 5.39994 -1.01238 -4.67333
Ar -4.20464 1.01766 4.02974
Ar -1.30848 3.29634 4.28289
Ar -0.281154 -4.21822 2.30173
Ar 1.42042 -1.74016 0.285762
Ar 5.7693 3.16747 -3.21498
Ar -3.85983 0.00892304 -2.89063
Ar -4.07249 -3.81669 -2.87332
Ar 1.91433 0.485197 -5.50257
38
Atoms. Timestep: 100000
Ar -2.37841 2.91735 -1.93803
Ar 5.39511 -2.48769 0.1102
Ar -1.5654 0.753714 -5.3747
Ar -2.50089 0.438997 0.529169
Ar -6.09198 1.20183 -0.123116
Ar -3.76981 3.93453 1.32218
Ar -1.79404 -3.11761 0.887146
Ar -2.79161 -2.27294 4.6203
Ar -5.40502 -1.86832 1.18038
Ar 3.01958 -2.6857 -2.7624
Ar 3.90259 0.102902 2.8159
Ar 4.30002 -4.02588 3.40951
Ar 0.860936 2.12183 0.671259
Ar 2.10203 1.86184 5.50593
Ar -0.0485576 -0.505965 3.20645
Ar 3.82232 4.56345 -0.810003
Ar 2.49498 -5.85275 0.203319
Ar 2.8934 4.43059 2.55368
Ar -0.302741 5.59884 0.203775
Ar -0.288939 -4.83503 -2.09268
Ar 1.37152 -1.87653 6.42058
Ar -0.00397684 -0.522502 -1.94047
Ar 3.69643 0.773081 -1.37643
Ar -1.40422 0.667123 6.52995
Ar 0.924636 2.92036 -3.18975
Ar -1.36124 -3.10782 -4.82629
Ar 6.8414 1.6495 0.850447
Ar -4.94433 2.2891 -4.47254
Ar -5.91316 -2.38796 -5.72461
Ar 6.2494 -0.940978 -3.421
Ar -4.45685 1.29261 3.81384
Ar -1.03745 3.31744 3.68452
Ar 0.567768 -4.13961 3.50736
Ar 1.79494 -2.06545 0.664501
Ar 4.63763 3.13439 -4.15864
Ar -3.7665 -0.811981 -2.68307
Ar -7.29683 -0.689429 -2.8424
Ar 2.24928 0.225671 -4.95424
38
Atoms. Timestep: 110000
Ar -2.36184 2.08095 -0.894767
Ar 6.37064 -2.01706 -1.11459
Ar -2.12752 1.01744 -5.00247
Ar -2.83494 0.124254 2.13945
Ar -5.60809 2.69714 -2.32652
Ar -4.722 3.56106 2.03648
Ar -1.56134 -2.98986 0.714767
Ar -2.65947 -2.90831 4.74612
Ar -5.30088 -2.52987 2.26242
Ar 2.82365 -3.12324 -2.59513
Ar 4.08711 0.357533 2.91556
Ar 5.55107 -2.94865 2.13099
Ar 0.959203 1.52251 1.28464
Ar 1.8127 2.63009 4.9735
Ar -0.0127786 -0.891908 4.01643
Ar 3.6072 4.16776 1.17495
Ar 2.68811 -5.48905 0.180855
Ar 1.70734 6.37498 3.70988
Ar -0.528706 5.36973 0.30841
Ar -0.574985 -4.78779 -2.17716
Ar 2.85883 -2.59098 5.02731
Ar -0.0506821 -0.52018 -1.84068
Ar 3.643 0.680417 -1.19238
Ar -3.32679 0.49321 5.98217
Ar 0.970001 3.02405 -2.58201
Ar -0.685988 -2.63493 -5.27079
Ar 4.32726 4.76588 -2.3674
Ar -2.16896 4.44186 -3.72919
Ar -4.22798 -5.36249 0.128862
Ar 3.32448 -3.06393 -6.08296
Ar -7.17372 0.177025 4.24796
Ar -1.10488 3.3365 3.14756
Ar 0.535332 -4.87753 3.52701
Ar 2.05908 -1.92738 0.883744
Ar 5.7394 0.169079 -4.26664
Ar -3.51815 -2.29313 -2.93729
Ar -4.47349 3.52955 -6.39877
Ar 1.96078 0.436279 -4.76033
38
Atoms. Timestep: 120000
Ar -2.66101 0.948366 -3.32839
Ar 4.12964 2.2521 1.4957
Ar -0.98727 0.224647 -6.8068
Ar -2.38988 1.72512 0.154698
Ar -5.82338 0.895569 -5.60893
Ar -6.35824 1.40226 -1.37468
Ar -1.76757 -1.77206 1.91846
Ar -1.95287 -3.44319 5.64853
Ar -5.04768 -0.704248 2.68683
Ar 2.63893 -3.61252 -2.63059
Ar 4.8153 -1.59649 3.44391
Ar 5.14801 -3.75871 0.400522
Ar 0.706941 0.906059 1.84941
Ar 2.01615 1.54641 5.3958
Ar 1.32241 -1.79129 4.4872
Ar 3.14486 4.97999 4.226
Ar 1.57024 -6.80612 0.571211
Ar 2.89361 5.74448 0.300158
Ar -2.16284 4.84851 -2.08831
Ar -1.26253 -4.60179 -1.04006
Ar 3.03161 -4.91386 3.93803
Ar -0.267491 -1.27428 -1.2207
Ar 4.23333 -0.259327 -1.47588
Ar -1.89211 1.27604 4.23077
Ar 1.10902 2.77914 -1.35146
Ar -1.73929 -2.52378 -4.18422
Ar 2.45767 5.71937 -3.42085
Ar -0.296142 3.41551 -4.7232
Ar -3.98476 -4.76934 1.46004
Ar 1.48436 0.129812 -4.02383
Ar -5.09138 0.736578 6.5036
Ar -0.333422 4.15591 1.90855
Ar -0.509891 -5.10092 2.87228
Ar 1.94424 -2.82625 1.2244
Ar 5.7653 0.184072 -4.75694
Ar -3.93834 -1.95526 -0.77577
Ar -5.29864 4.53885 -3.86754
Ar 5.35512 3.30166 -2.03795
38
Atoms. Timestep: 130000
Ar -3.13369 1.83929 -2.9936
Ar 3.48989 3.84358 0.429923
Ar -0.0314337 0.402287 -8.01628
Ar -2.28286 1.4972 0.793555
Ar -0.205605 -5.2292 -4.45083
Ar -5.49637 2.04895 -0.396085
Ar -1.48899 -1.74766 2.4252
Ar -3.12939 -4.05865 4.97076
Ar -5.59692 -0.150886 2.86411
Ar 1.63123 -2.32293 -3.79471
Ar 4.66624 0.352347 1.22737
Ar 4.74977 -4.28973 -0.393127
Ar 1.28415 1.27594 2.17146
Ar 5.91791 3.30765 3.2665
Ar 1.3167 -2.29746 4.6412
Ar 2.34856 4.25457 4.08754
Ar 1.57428 -5.86065 -1.20052
Ar 0.98672 6.77545 -1.29958
Ar -0.367991 4.52335 1.98581
Ar -1.94136 -4.36817 -1.47123
Ar 3.06073 -6.1439 2.23111
Ar -0.426828 -0.843649 -0.997029
Ar 3.01559 0.859258 -2.15304
Ar -1.42989 0.439842 5.35713
Ar 0.266338 2.9061 -1.25395
Ar -2.38436 -1.94352 -4.46562
Ar -0.846157 4.92939 -4.19404
Ar -2.9486 2.49414 -6.52845
Ar -4.37321 -4.62326 1.01352
Ar -0.0922499 0.936999 -4.2832
Ar -4.74964 3.60563 3.1133
Ar 3.98127 0.465581 5.11618
Ar -0.453095 -5.14657 2.37442
Ar 1.92921 -2.58042 1.19938
Ar 5.29065 -2.7925 3.51031
Ar -4.05118 -1.57542 -0.547016
Ar -3.00954 4.93781 -0.966808
Ar 2.93214 4.28022 -3.37369
38
Atoms. Timestep: 140000
Ar -3.02185 2.21331 -2.67607
Ar 4.34649 4.07233 -0.404079
Ar 3.46924 -0.0568873 -5.76824
Ar -2.9374 2.01387 1.22344
Ar 0.548068 -2.80865 -6.45326
Ar -6.74238 3.09532 -1.44638
Ar -3.16282 -1.50402 2.29878
Ar -0.0341527 -1.69954 4.92485
Ar -6.90681 -2.46683 3.24168
Ar 2.23678 -3.09339 -3.02262
Ar 4.35817 1.16798 1.83404
Ar 5.48036 -2.5775 -0.50084
Ar 0.659129 0.240568 2.03879
Ar 3.95831 5.1813 3.29378
Ar 3.69088 -1.59123 4.03877
Ar 1.88314 1.90768 5.06765
Ar -0.969684 -4.24254 -2.4004
Ar 1.40277 6.15399 -1.79565
Ar 0.470688 4.18901 2.53616
Ar -3.93765 -4.18023 -0.226529
Ar 3.30586 -5.75218 -0.782534
Ar -1.26408 -0.882201 -0.703396
Ar 3.00987 0.236822 -1.35577
Ar -3.23325 1.38854 4.62292
Ar 0.527582 2.65253 -0.86659
Ar -2.98238 -1.87517 -3.93391
Ar -0.312368 3.95225 -4.89934
Ar -0.849976 1.1663 -7.53244
Ar -3.92718 -3.65883 5.61784
Ar -0.0208079 0.442314 -3.91003
Ar -6.55134 1.19533 2.51081
Ar 7.20667 -0.355806 3.71959
Ar -1.20687 -4.5946 2.95749
Ar 1.36768 -3.18992 0.89103
Ar 4.52615 -4.77725 2.89381
Ar -5.18828 -0.351663 -1.14864
Ar -2.16188 5.28646 -0.0458849
Ar 2.96534 3.10356 -3.83883
38
Atoms. Timestep: 150000
Ar -3.68887 1.77287 -2.67148
Ar 3.258 4.27404 0.513801
Ar 5.09249 -0.153745 -5.12614
Ar -3.21159 2.57619 1.71738
Ar 1.0457 -2.14821 -5.59743
Ar -6.69692 2.68362 0.438532
Ar -1.8441 -0.80043 0.520896
Ar 0.869095 -1.46897 4.34323
Ar -4.94055 -3.86325 3.06294
Ar 3.41246 -2.38137 -2.65312
Ar 5.25373 0.860838 3.07395
Ar 5.49517 -4.53805 0.403774
Ar 1.1555 1.16887 1.56345
Ar 3.52597 6.72235 3.99001
Ar 4.22076 -1.11503 6.07005
Ar 2.38618 1.9882 4.90051
Ar -0.222357 -4.13256 -1.78706
Ar -0.945684 6.43948 -2.44198
Ar 0.0440505 4.6528 2.38687
Ar -3.81345 -3.98434 -0.575298
Ar 2.216 -6.15649 -0.310031
Ar 0.805791 0.165164 -2.14151
Ar 4.33189 1.12662 -1.13345
Ar -1.34096 2.2447 4.8317
Ar -0.943268 3.04006 -0.819458
Ar -2.46989 -1.64313 -3.34046
Ar -3.057 4.95934 -5.31555
Ar -0.0187414 -1.33831 -8.92348
Ar -2.69781 -1.22805 4.16911
Ar -0.882704 0.999823 -5.32363
Ar -6.11432 0.490149 3.43816
Ar 4.61954 -8.06487 2.04283
Ar -1.13006 -4.29823 2.08475
Ar 1.99932 -2.24558 0.835906
Ar 2.28741 -4.92119 3.43517
Ar -5.23354 -0.615387 -0.705507
Ar -4.15094 5.0367 -1.26046
Ar 1.38573 3.89638 -3.69699
38
Atoms. Timestep: 160000
Ar -4.56236 1.73251 -2.66246
Ar 3.26688 3.46817 3.20407
Ar 1.32651 2.36667 -5.23381
Ar -3.24283 2.00258 0.705004
Ar 2.70094 -2.01737 -5.27744
Ar -7.02486 2.75181 0.868489
Ar -1.70255 -1.23054 -0.979419
Ar -2.34898 -0.950307 6.20562
Ar -3.96056 -3.51486 3.37085
Ar 4.68515 -2.47916 -1.41585
Ar 4.24759 0.475884 0.941944
Ar 1.9688 -0.636615 4.53195
Ar 0.743473 1.1551 1.32273
Ar 5.7696 0.455687 4.23408
Ar 3.61713 -5.26978 5.33526
Ar 5.88473 3.69616 0.544733
Ar 1.02524 -3.84515 -2.38544
Ar 0.218906 5.26739 -3.27129
Ar -0.618514 4.59373 0.808464
Ar -5.29345 -4.40463 -0.123637
Ar 3.09949 -5.70664 1.03839
Ar 1.70105 -0.328214 -1.9356
Ar 5.40356 1.27364 -2.44654
Ar -0.938991 2.8046 4.03295
Ar -1.02043 2.05545 -2.00045
Ar -4.49423 -1.83073 -3.81447
Ar -2.31275 3.37929 -5.2465
Ar 0.498824 0.490403 -8.32145
Ar -1.79737 -0.76265 2.71681
Ar -1.02442 -0.537171 -4.79909
Ar -4.71805 1.34387 3.91053
Ar 5.06913 -2.78695 2.43109
Ar -1.14528 -4.60867 0.692424
Ar 1.6154 -2.42076 1.04254
Ar 0.102302 -3.68609 4.01076
Ar -5.22447 -0.727777 0.555015
Ar -3.9307 5.12296 -1.26088
Ar 2.41809 3.30915 -1.3294
38
Atoms. Timestep: 170000
Ar -3.97725 0.546197 -4.01263
Ar 3.13988 2.83594 3.21801
Ar 2.68412 3.06371 -4.37443
Ar -3.06759 3.27628 1.38759
Ar 3.21659 -1.1298 -4.7729
Ar -6.06053 0.45161 -0.959179
Ar -2.63473 -0.756788 -0.82988
Ar -0.560457 -2.19045 6.19266
Ar -4.05648 -0.542998 5.70545
Ar 3.10308 -3.30667 -1.72093
Ar 4.05321 -0.0998683 0.67069
Ar 2.18851 -1.05677 3.55495
Ar 0.545534 1.28681 1.46316
Ar 6.71773 -0.0761309 3.25412
Ar 4.75842 -2.4542 5.83523
Ar 5.89982 3.17705 0.593726
Ar -0.874821 -3.01608 -3.06885
Ar 0.645848 5.97618 -3.44916
Ar -0.0448122 5.64962 1.42357
Ar -2.28301 -4.81983 -0.34404
Ar 1.25766 -5.95733 0.594077
Ar 1.25696 -0.155117 -1.8792
Ar 5.25785 1.01667 -2.56796
Ar -1.00524 1.62599 5.08169
Ar -1.17342 2.74663 -2.15251
Ar -4.7045 -3.31812 -3.08821
Ar -2.27491 3.4312 -5.63253
Ar 0.681259 2.87849 -8.48664
Ar -2.46288 -0.40484 2.65504
Ar -0.268069 0.235906 -5.20239
Ar -6.29429 0.808789 2.57588
Ar 4.23468 -3.49566 1.87878
Ar -2.17525 -4.02441 3.19361
Ar 0.423703 -2.55916 0.917583
Ar 1.30452 -4.66895 4.1411
Ar -5.23239 -2.39186 0.942254
Ar -4.76007 3.80211 -1.97917
Ar 2.54332 3.61687 -0.758555
38
Atoms. Timestep: 180000
Ar -4.90922 0.533777 -2.65925
Ar 2.7886 3.16874 2.6109
Ar 4.14414 1.01914 -3.69682
Ar -3.29094 1.4305 1.07149
Ar 2.47463 -2.19046 -5.32134
Ar -6.88047 2.28967 0.223621
Ar -2.14872 -1.30772 -0.821275
Ar -3.59324 -2.33004 6.1026
Ar 0.171364 -0.312419 6.54037
Ar 3.68997 -3.52194 -1.97237
Ar 3.6036 0.240312 0.13014
Ar 1.82632 -0.63188 3.36551
Ar 0.249254 0.991652 0.632585
Ar 5.81051 1.42484 3.20887
Ar 3.92972 -1.72284 5.8122
Ar 5.89148 3.24491 -0.344817
Ar -1.7223 -0.924165 -4.90692
Ar -2.30495 5.29293 -3.12813
Ar -1.33255 4.18369 0.547245
Ar -0.676511 -4.20279 -2.73505
Ar 2.32016 -6.15537 1.38255
Ar 1.14786 -0.653654 -2.20121
Ar 6.58119 -1.41299 -1.30299
Ar -0.881606 1.94013 3.7813
Ar -1.85245 2.02589 -2.25376
Ar -4.0683 -3.05463 -3.2169
Ar -3.23644 2.95417 -5.8539
Ar 4.86039 5.02472 -3.48699
Ar -1.758 -1.67124 3.11321
Ar 0.889613 1.81138 -5.04462
Ar -4.44149 0.925436 4.81918
Ar 4.49957 -2.91587 2.45294
Ar -3.57169 -4.8558 0.754704
Ar 0.794194 -2.93754 0.724339
Ar 0.622814 -3.72047 5.38235
Ar -5.34668 -1.43651 0.737294
Ar -5.77018 3.92717 -2.58978
Ar 1.49236 3.53027 -1.85727
38
Atoms. Timestep: 190000
Ar -6.64183 0.106775 -1.11295
Ar -1.55698 4.40659 0.557915
Ar 5.63908 0.173012 -2.38735
Ar -3.77361 1.52908 1.4243
Ar 3.86305 -0.502566 -5.48569
Ar -6.72113 1.41872 3.26915
Ar -2.72867 -1.54816 -0.550049
Ar -3.38396 -4.05858 5.40619
Ar -0.265701 -0.206188 6.47407
Ar 3.50227 -3.30835 -2.24146
Ar 3.53859 0.662919 0.863255
Ar 1.75559 -0.70031 3.74834
Ar -0.144096 1.06359 1.16918
Ar 2.76034 2.94603 4.06274
Ar 5.24542 -0.953455 4.69356
Ar 6.3007 3.37508 1.61249
Ar -3.72481 -0.395576 -4.42881
Ar 4.05804 3.27675 -4.35186
Ar 0.202651 4.17189 -3.66943
Ar -0.473652 -2.20208 -3.78931
Ar -1.04909 -4.8716 -1.16782
Ar 1.90783 0.634972 -2.58213
Ar 6.8081 -0.413527 1.2765
Ar -1.33525 2.69916 4.49487
Ar -1.85062 1.62356 -1.90267
Ar -5.38482 -3.37283 -2.24529
Ar -3.47822 3.22006 -5.21315
Ar 7.06588 1.11175 -6.16563
Ar -1.61909 -1.86111 2.76984
Ar 0.373203 0.755416 -6.04397
Ar -3.96975 -0.280202 5.03326
Ar 4.28361 -3.02946 1.61066
Ar -3.2852 -4.7786 1.50761
Ar 1.04043 -2.01331 0.0203327
Ar 1.21381 -4.53905 2.6133
Ar -5.63272 -2.19668 1.94511
Ar -5.07238 3.90461 -1.16306
Ar 2.53498 4.1527 -0.0520363
38
Atoms. Timestep: 200000
Ar -7.07197 1.48262 -1.42617
Ar -0.652504 4.01953 0.70643
Ar 5.44837 1.40496 -2.1702
Ar -2.97469 1.61009 -0.467366
Ar 3.31489 3.36738 -4.47611
Ar -5.91124 0.682297 1.76092
Ar -2.22333 -1.52612 1.92692
Ar -3.89797 -0.427812 4.88947
Ar -0.438266 0.815674 4.59611
Ar 4.70748 -2.56129 -2.35081
Ar 3.93275 -0.499509 0.613733
Ar 1.58137 -2.34239 3.57676
Ar 0.49128 0.592915 0.765788
Ar 2.88666 2.03167 3.29576
Ar 5.45422 -1.78854 3.87107
Ar 6.35944 1.57871 2.96255
Ar -2.57483 -2.33418 -5.39482
Ar -0.483578 3.22384 -2.84664
Ar -2.52267 3.97937 -6.46359
Ar 1.35834 -2.57159 -4.23998
Ar -1.92961 -4.47675 -1.06251
Ar 1.98141 0.236412 -2.53975
Ar 7.56599 -0.993777 0.666691
Ar 0.182565 4.38693 4.78883
Ar -1.29694 -0.968503 -2.34284
Ar -4.89043 -2.15263 -0.689511
Ar -4.14316 0.939586 -4.24779
Ar 6.08401 5.16741 -2.32006
Ar -1.51326 -3.45694 5.01999
Ar -0.112689 0.802075 -5.41234
Ar -3.73053 3.63407 3.48987
Ar 4.35981 -4.21944 1.07982
Ar -3.30251 -5.18196 2.25166
Ar 1.18378 -3.00838 -0.00443518
Ar 0.53299 -5.86615 2.09765
Ar -6.29141 -3.37192 3.64961
Ar -4.11023 4.3765 -2.94644
Ar 2.64845 3.41683 -0.60827
38
Atoms. Timestep: 210000
Ar -3.97594 -3.17028 -2.94842
Ar -0.550611 3.6802 2.2349
Ar 6.45829 1.6474 -1.58585
Ar -2.72568 0.842504 0.428858
Ar 2.77903 3.88458 -3.91684
Ar -5.84438 2.72381 -0.137339
Ar -1.41935 -2.65057 1.16795
Ar -4.12728 0.643602 6.48899
Ar -1.70792 -0.415254 3.9923
Ar 5.26903 -1.75999 -2.11546
Ar 4.03263 -0.855605 1.05523
Ar 1.96549 -2.72339 3.55114
Ar 0.447475 0.388383 1.21129
Ar 2.73747 1.55066 3.6769
Ar 5.1093 -0.750995 4.77479
Ar 6.32725 2.04672 2.02446
Ar -1.48113 -2.96689 -5.78689
Ar -0.452158 2.90816 -1.69088
Ar -2.21971 4.38548 -6.11058
Ar 2.25019 -1.9223 -5.04124
Ar -0.159985 -4.90828 -2.8253
Ar 2.42768 0.802823 -2.38695
Ar 7.63353 -1.56757 2.10679
Ar -0.30826 1.9262 6.59122
Ar -0.9413 -1.0832 -2.20786
Ar -5.64363 -1.59421 -0.0213301
Ar -3.67061 0.901319 -3.20659
Ar 1.26773 4.22659 -7.64766
Ar -1.30241 -4.6446 4.30707
Ar -0.0822675 1.43912 -5.23236
Ar -3.74286 3.32551 3.89997
Ar 5.47896 -4.42283 0.532476
Ar -4.61816 -2.71639 3.34774
Ar 1.78387 -3.18701 -0.519185
Ar -4.29406 -5.17827 0.776894
Ar -6.01664 0.887868 2.91574
Ar -3.49533 5.03142 -2.12428
Ar 2.81375 3.27628 0.420321
38
Atoms. Timestep: 220000
Ar -4.03075 -2.89039 -3.94456
Ar -0.653518 3.22691 1.68042
Ar 5.83406 1.33057 -2.98594
Ar -3.82576 0.959982 0.188923
Ar 5.63875 4.64053 -1.26655
Ar -7.43051 0.907703 -0.961331
Ar -1.79377 -3.19717 1.67582
Ar -3.66728 1.56136 6.30357
Ar -1.89897 0.134954 3.46591
Ar 5.44405 -2.35663 -2.53673
Ar 3.83992 -0.0709231 0.26153
Ar 1.68169 -2.60534 2.89395
Ar -0.0179959 -0.0686593 0.385736
Ar 1.85417 1.422 3.15578
Ar 4.98701 -0.861937 3.67343
Ar 5.29318 2.92429 2.37316
Ar -2.37153 3.0031 -5.61654
Ar -0.582907 2.06262 -2.47225
Ar 0.00900177 5.55977 -4.78448
Ar 2.61085 -3.81337 -4.70764
Ar -2.42333 -6.22136 -1.57783
Ar 2.45643 -0.145102 -3.0886
Ar 7.65864 -0.73753 0.447608
Ar -0.597449 3.22092 5.37235
Ar -0.978884 -2.45117 -2.09907
Ar -4.66368 -2.45535 -0.440103
Ar -4.38972 0.682504 -3.26342
Ar 2.8 3.51926 -3.58746
Ar -1.0591 -3.09111 5.41402
Ar -1.03398 -0.464609 -5.06176
Ar -4.48947 3.70693 3.27591
Ar 5.06135 -3.73163 1.30057
Ar -4.89272 -2.35279 4.1978
Ar 2.47607 -3.61975 -1.05899
Ar 0.786522 -5.93848 1.6939
Ar -6.7341 0.737623 3.23402
Ar -3.48458 4.21553 -1.383
Ar 2.59031 3.25775 -0.158157
38
Atoms. Timestep: 230000
Ar -2.12592 -4.61591 -1.62552
Ar 0.184928 3.91458 2.11873
Ar 5.18465 1.25214 -2.84799
Ar -2.70818 2.35082 0.835268
Ar 5.38335 5.45292 -2.29183
Ar -4.66237 -1.20339 -0.172323
Ar -1.71661 -2.60662 1.48871
Ar -6.62979 2.45786 4.36898
Ar -0.248847 -0.390838 4.60138
Ar 3.52071 -3.13287 -4.4025
Ar 4.91639 -1.11949 -0.345552
Ar 2.50204 -2.71077 3.15619
Ar 1.02068 0.474089 0.786375
Ar 2.6222 1.90501 3.95253
Ar 5.68 -0.494025 2.93178
Ar 7.01252 2.49089 0.401287
Ar -1.54217 4.66721 -4.92996
Ar -0.296229 3.07111 -1.49471
Ar 1.60809 6.20729 -0.305927
Ar -0.640509 -2.33223 -4.79838
Ar 1.6753 -6.40262 -2.61772
Ar 1.51329 0.206645 -3.07284
Ar 9.0837 -0.30497 0.958862
Ar -2.42716 3.77887 4.42402
Ar -1.51325 -0.584485 -1.57566
Ar -4.99333 -3.37087 3.53472
Ar -4.34202 -1.45649 -4.24077
Ar 2.44173 3.80587 -4.57579
Ar -1.18079 -4.91093 4.68072
Ar -2.02846 1.23281 -5.29352
Ar -6.39765 2.57469 0.438999
Ar 1.89835 -5.93515 1.58399
Ar -3.73676 0.338267 3.62142
Ar 1.4227 -2.87073 -0.617741
Ar -2.32721 -6.82656 1.65801
Ar -7.84777 -0.643346 2.11213
Ar -3.68611 2.53736 -2.44747
Ar 3.38252 3.19486 0.00212146
38
Atoms. Timestep: 240000
Ar -1.90224 -5.17777 -2.73067
Ar 2.1467 5.26764 2.96956
Ar 5.40795 1.66026 -1.98912
Ar -4.57733 0.535793 0.824747
Ar 3.37384 6.24056 -0.610251
Ar -5.13745 -2.58581 -1.09674
Ar -2.33771 -3.78105 1.19293
Ar -0.8175 3.15218 2.20404
Ar -1.87612 -1.08583 4.42164
Ar 4.40251 -3.21946 -2.35871
Ar 3.51633 -0.387093 0.248068
Ar 4.64524 -3.78908 1.0156
Ar -0.0678291 -0.26134 1.15461
Ar 1.89463 1.47605 3.95042
Ar 5.83438 -0.857727 2.74281
Ar 5.4645 3.70985 1.55282
Ar -2.83849 4.33091 -3.93744
Ar -1.14638 2.01176 -1.5471
Ar -0.974479 5.42268 -0.580056
Ar 1.0524 -2.62439 -4.44451
Ar 2.2271 -6.155 -2.41178
Ar 2.07972 0.705075 -3.11227
Ar 7.29562 -1.39963 -0.690918
Ar -1.66347 2.38768 5.50794
Ar -1.64633 -1.52521 -1.87432
Ar -5.1007 -2.42932 3.00246
Ar -3.54764 -2.42452 -4.85386
Ar 0.737044 4.27253 -3.81678
Ar 2.41874 -2.15002 3.62102
Ar -1.0225 0.78401 -5.18704
Ar -4.37783 3.95437 -0.255379
Ar 1.67702 -5.64454 2.09928
Ar -5.10699 0.956944 5.11207
Ar 1.09289 -3.20455 -0.557121
Ar -4.73832 -6.23552 -0.393672
Ar -4.25974 4.47965 3.2823
Ar -4.22583 0.516691 -2.70397
Ar 2.10026 3.07424 0.249387
38
Atoms. Timestep: 250000
Ar -2.14356 -5.41391 -2.49511
Ar 1.51425 5.4969 3.3161
Ar 5.175 2.15223 -2.34712
Ar -3.74889 -0.569095 1.35142
Ar 3.7786 5.79635 -1.65986
Ar -4.89821 -2.70868 -1.49745
Ar -1.78083 -3.46157 0.893382
Ar -1.14149 2.87038 1.77166
Ar -1.4485 -0.507398 4.39381
Ar 4.82254 -2.12407 -2.35882
Ar 3.63155 -0.212918 0.623658
Ar 5.03156 -3.72621 1.13529
Ar -0.0383907 -0.369154 0.605719
Ar 2.09634 1.22618 3.44657
Ar 5.41676 -0.644107 3.93984
Ar 4.5047 3.57853 2.01947
Ar -4.05673 4.41132 -3.83795
Ar -1.93239 1.95105 -1.5265
Ar -0.470594 5.57425 -0.395236
Ar 1.21097 -4.44059 -4.45456
Ar 3.11602 -6.70141 -1.41568
Ar 1.95259 -0.0558579 -2.87107
Ar 7.29852 0.202301 0.510045
Ar -0.377472 3.19852 5.35868
Ar -1.52411 -1.67645 -2.45
Ar -5.37205 -3.8412 2.09686
Ar -4.16551 -1.08106 -4.86303
Ar 0.445719 3.82668 -3.49227
Ar 1.96608 -3.07331 2.73512
Ar -1.18687 1.08585 -5.02061
Ar -4.3937 4.5127 0.745984
Ar 0.0197896 -6.71313 0.672961
Ar -5.25894 1.01898 4.37002
Ar 1.53836 -3.39339 -0.858693
Ar -3.78799 -6.66553 0.477597
Ar -2.17762 6.22699 3.57802
Ar -5.62052 1.55376 -2.00248
Ar 2.00701 2.69709 -0.495748
38
Atoms. Timestep: 260000
Ar -1.46905 -5.75152 -2.30022
Ar 2.38853 4.82894 2.70274
Ar 4.89258 1.95914 -2.2174
Ar -3.98519 0.623061 0.326871
Ar 3.07996 5.63852 -1.11935
Ar -6.73243 -2.2892 -1.51102
Ar -3.38969 -3.37601 0.288038
Ar -1.32413 2.97438 2.48094
Ar -1.71429 -1.87436 3.92546
Ar 4.57804 -2.36461 -2.96124
Ar 3.26027 -0.519109 0.55362
Ar 5.12967 -3.87956 0.689554
Ar -0.413425 -0.288494 0.648796
Ar 1.46137 1.02515 3.78351
Ar 4.93154 -0.704947 3.83089
Ar 5.18439 2.5139 1.47496
Ar -2.08653 5.20056 -4.03481
Ar -1.44316 2.41652 -1.55733
Ar -0.190849 5.64811 0.120983
Ar 0.796953 -3.65036 -4.11571
Ar 3.41052 -5.80529 -2.45277
Ar 1.37252 0.0105273 -2.69534
Ar 7.25777 -0.519169 0.236553
Ar -1.34352 2.70163 6.1642
Ar -1.80817 -1.55776 -2.43714
Ar -5.67759 -1.95167 2.74106
Ar -4.32726 -2.17388 -4.84871
Ar 1.52297 3.61413 -3.58377
Ar 1.87429 -3.03905 2.95552
Ar -2.0962 1.19183 -5.02933
Ar -3.61911 4.61003 0.132314
Ar 2.31007 -7.07099 1.19303
Ar -4.45424 1.80872 3.84511
Ar 1.32465 -4.00531 -0.449541
Ar -0.813465 -5.57742 2.00435
Ar -4.42986 5.70969 4.33449