38
Atoms. Timestep: 0
Ar 1.668 1.873 0
Ar 5.651 1.903 0.003
Ar 1.878 5.656 -0.01
Ar -1.867 1.863 -0.007
Ar -5.65 1.873 -0.014
Ar -1.898 5.645 -0.014
Ar -1.857 -1.873 0
Ar -5.64 -1.903 -0.003
Ar -1.867 -5.656 0.01
Ar 1.878 -1.863 0.007
Ar 5.661 -1.873 0.014
Ar 1.909 -5.645 0.014
Ar 0.002 0.007 2.642
Ar 3.751 0.017 2.659
Ar -3.75 -0.003 2.646
Ar -0.008 3.756 2.646
Ar 0.012 -3.745 2.659
Ar 3.761 3.786 2.656
Ar -3.778 3.766 2.646
Ar -3.757 -3.773 2.663
Ar 3.781 -3.752 2.673
Ar 0.009 -0.007 -2.642
Ar 3.761 0.003 -2.646
Ar -3.74 -0.017 -2.659
Ar -0.002 3.746 -2.659
Ar 0.019 -3.756 -2.646
Ar 3.768 3.773 -2.663
Ar -3.771 3.752 -2.673
Ar -3.75 -3.786 -2.656
Ar 3.788 -3.766 -2.646
Ar 1.871 1.897 5.329
Ar -1.888 1.886 5.325
Ar -1.878 -1.873 5.332
Ar 1.881 -1.863 5.339
Ar 1.888 1.873 -5.332
Ar -1.871 1.863 -5.339
Ar -1.861 -1.897 -5.329
Ar 1.898 -1.886 -5.325
38
Atoms. Timestep: 10000
Ar 1.88512 1.90812 -0.000954291
Ar 5.71548 1.83259 0.099019
Ar 1.9164 5.70829 -0.0451174
Ar -1.90511 1.79973 -0.089481
Ar -5.70495 1.85834 -0.00749216
Ar -1.90062 5.63592 0.0370155
Ar -1.81302 -1.90601 -0.0333526
Ar -5.73087 -2.00178 -0.0402493
Ar -1.93259 -5.75289 0.0311793
Ar 1.86612 -1.81633 0.0194708
Ar 5.71574 -1.91318 0.00376445
Ar 1.91484 -5.57152 -0.0592732
Ar 0.0507316 -0.0123299 2.59214
Ar 3.78167 0.0469023 2.74984
Ar -3.82112 -0.00501037 2.65161
Ar 0.0196005 3.75779 2.50268
Ar 0.0594411 -3.8112 2.64282
Ar 3.74781 3.85102 2.57462
Ar -3.81012 3.81653 2.5443
Ar -3.7072 -3.70639 2.67753
Ar 3.86082 -3.69124 2.6445
Ar -0.010028 0.0376382 -2.66162
Ar 3.79369 -0.0292879 -2.51805
Ar -3.79656 -0.064662 -2.6242
Ar 0.0476143 3.77779 -2.70145
Ar -0.0775879 -3.76569 -2.62105
Ar 3.81689 3.73177 -2.68017
Ar -3.86095 3.70493 -2.54779
Ar -3.79763 -3.80877 -2.72532
Ar 3.84579 -3.74612 -2.65333
Ar 1.90038 1.96388 5.37889
Ar -1.88561 1.84834 5.29527
Ar -1.8528 -1.90236 5.32647
Ar 1.78958 -1.86636 5.2873
Ar 1.99299 1.90743 -5.26831
Ar -1.97939 1.91906 -5.2941
Ar -2.00372 -1.89244 -5.25947
Ar 1.8712 -1.84151 -5.22765
38
Atoms. Timestep: 20000
Ar 1.8834 1.96625 0.0231514
Ar 5.71364 2.05086 -0.0729219
Ar 1.83068 5.723 0.0132086
Ar -1.83532 1.89838 -0.052723
Ar -5.52599 1.99638 -0.0218823
Ar -1.99898 5.53745 0.00619532
Ar -1.9298 -1.88021 0.0237222
Ar -5.74186 -1.776 0.0119384
Ar -1.84514 -5.64257 -0.0133839
Ar 1.82747 -1.92061 -0.0103404
Ar 5.69276 -1.86273 0.019537
Ar 1.89223 -5.65236 0.0959783
Ar -0.0421898 -0.0161512 2.56707
Ar 3.76504 0.0321941 2.57195
Ar -3.76137 -0.0741142 2.67743
Ar -0.0877558 3.77812 2.66266
Ar -0.00796867 -3.73884 2.67988
Ar 3.69189 3.83722 2.62747
Ar -3.69246 3.77083 2.78589
Ar -3.85033 -3.85029 2.56559
Ar 3.80191 -3.70121 2.64207
Ar 0.00453847 -0.0632933 -2.587
Ar 3.82151 0.0422069 -2.63204
Ar -3.84171 0.0020298 -2.66098
Ar 0.0193627 3.7983 -2.71656
Ar 0.00536083 -3.84958 -2.70173
Ar 3.77306 3.8559 -2.6115
Ar -3.75252 3.78284 -2.79958
Ar -3.81309 -3.72337 -2.6253
Ar 3.74575 -3.81387 -2.55801
Ar 1.89363 1.83457 5.20217
Ar -1.82381 1.76171 5.38514
Ar -1.84935 -1.98067 5.40361
Ar 1.89504 -1.83823 5.29463
Ar 1.89109 1.83687 -5.37961
Ar -1.86339 1.7557 -5.22308
Ar -1.8552 -1.98265 -5.30072
Ar 1.97186 -1.89308 -5.29192
38
Atoms. Timestep: 30000
Ar 1.80165 1.87258 -0.0631308
Ar 5.57712 1.79212 -0.0369202
Ar 1.87749 5.65761 0.0370175
Ar -1.84275 1.90601 -0.0191094
Ar -5.65097 1.77756 -0.080573
Ar -1.90004 5.6703 0.0352687
Ar -1.84696 -1.91471 -0.0181961
Ar -5.58302 -2.02181 0.0389698
Ar -1.82196 -5.64308 0.108891
Ar 1.94709 -1.8442 -0.0209275
Ar 5.65154 -1.88267 -0.0241694
Ar 2.00875 -5.65063 0.0157898
Ar 0.0292502 0.0724976 2.65762
Ar 3.81599 -0.0623392 2.69614
Ar -3.68831 -0.0496325 2.61115
Ar -0.0924719 3.74983 2.67667
Ar 0.0749191 -3.67867 2.71363
Ar 3.62059 3.62704 2.67768
Ar -3.80558 3.74688 2.66617
Ar -3.68602 -3.82071 2.77698
Ar 3.77888 -3.79589 2.77442
Ar 0.0478559 -0.001752 -2.6888
Ar 3.80693 -0.0511719 -2.83382
Ar -3.76566 0.0190077 -2.66786
Ar 0.0115417 3.78581 -2.67531
Ar -0.0263356 -3.76916 -2.64298
Ar 3.87657 3.79896 -2.70103
Ar -3.92837 3.86247 -2.68407
Ar -3.80782 -3.73121 -2.75365
Ar 3.86795 -3.84612 -2.74927
Ar 1.77057 1.90735 5.4256
Ar -1.9691 1.99372 5.36136
Ar -1.90075 -1.76075 5.33677
Ar 1.85469 -1.80176 5.47234
Ar 1.77738 1.81873 -5.33321
Ar -1.94161 2.05067 -5.28558
Ar -1.82215 -1.76918 -5.37338
Ar 1.88511 -2.01271 -5.43049
38
Atoms. Timestep: 40000
Ar 1.94101 1.80365 -0.0220305
Ar 5.70711 1.98634 0.0807544
Ar 1.71012 5.45882 -0.092355
Ar -1.8474 1.85921 -0.0215622
Ar -5.71773 2.03217 -0.00103225
Ar -2.02173 5.77734 -0.151558
Ar -1.86906 -1.89094 -0.0901966
Ar -5.65792 -1.80258 -0.00748597
Ar -1.88701 -5.71194 0.042442
Ar 1.86075 -1.94028 0.0963971
Ar 5.77851 -1.82053 -0.0548959
Ar 1.8839 -5.71545 0.0863599
Ar 0.0184471 0.0498239 2.66371
Ar 3.79739 0.0386946 2.62265
Ar -3.552 -0.000724603 2.64758
Ar -0.0451031 3.81142 2.72998
Ar 0.00182346 -3.71745 2.63925
Ar 3.73773 3.89076 2.7576
Ar -3.81076 3.76591 2.72532
Ar -3.76457 -3.70369 2.60327
Ar 3.86366 -3.80399 2.5589
Ar 0.0419376 -0.00152598 -2.62309
Ar 3.83208 0.0136191 -2.63934
Ar -3.81833 0.117595 -2.60475
Ar -0.19668 3.62259 -2.7799
Ar 0.142764 -3.72415 -2.63642
Ar 3.90472 3.66886 -2.67095
Ar -3.93626 3.85631 -2.75898
Ar -3.84183 -3.78523 -2.72191
Ar 3.95151 -3.79413 -2.48053
Ar 1.86562 1.72061 5.36815
Ar -1.97881 1.83292 5.49434
Ar -1.84847 -1.86391 5.49676
Ar 1.89859 -1.96111 5.23199
Ar 1.87248 1.87344 -5.28276
Ar -1.99675 1.8242 -5.53341
Ar -1.91164 -1.9183 -5.3746
Ar 1.89391 -1.84735 -5.2977
38
Atoms. Timestep: 50000
Ar 1.88115 1.8263 -0.0350567
Ar 5.52193 1.84254 -0.0597505
Ar 1.89883 5.69167 0.101103
Ar -1.83956 1.91011 -0.115783
Ar -5.60179 1.84295 0.240074
Ar -1.94087 5.78347 0.0542874
Ar -1.83741 -1.85021 -0.00919366
Ar -5.57507 -2.06668 -0.131055
Ar -1.76329 -5.7441 -0.0359199
Ar 1.85397 -1.80432 0.0648045
Ar 5.74995 -1.86153 0.00532281
Ar 1.87647 -5.66936 0.0572915
Ar -0.0258717 0.0501298 2.60897
Ar 3.80125 -0.0282155 2.7471
Ar -3.59989 -0.0280263 2.61663
Ar -0.140489 3.77584 2.70214
Ar 0.0443563 -3.68768 2.69521
Ar 3.78267 3.76602 2.65098
Ar -3.8624 3.90442 2.61033
Ar -3.57746 -3.78812 2.66913
Ar 3.67289 -3.69091 2.71542
Ar 0.0681194 -0.033272 -2.70502
Ar 3.82475 -0.0173875 -2.82624
Ar -3.81764 -0.0660757 -2.55643
Ar 0.0740274 3.79037 -2.57718
Ar -0.0799148 -3.64331 -2.61236
Ar 3.8525 3.72943 -2.7552
Ar -3.81711 3.83412 -2.55564
Ar -3.67823 -3.89972 -2.82926
Ar 3.75454 -3.8048 -2.57462
Ar 1.80841 1.96136 5.33626
Ar -1.95928 1.96443 5.30691
Ar -1.96757 -2.03794 5.37374
Ar 1.74602 -1.72916 5.39854
Ar 1.8973 1.86821 -5.36702
Ar -1.88312 1.90735 -5.22427
Ar -1.90332 -1.91858 -5.50573
Ar 1.76314 -2.07835 -5.47853
38
Atoms. Timestep: 60000
Ar 1.89606 1.79587 -0.0672735
Ar 5.75762 1.97774 0.0515279
Ar 1.60494 5.78654 0.0734007
Ar -1.84963 1.84262 -0.0914638
Ar -5.60461 1.96284 -0.122777
Ar -2.09221 5.5886 0.0512062
Ar -1.77515 -1.90277 0.0144218
Ar -5.66482 -1.80905 0.0727103
Ar -1.94629 -5.64771 0.121145
Ar 1.85419 -1.82588 0.062418
Ar 5.81873 -1.91161 -0.00836521
Ar 1.86405 -5.82127 -0.11703
Ar 0.0875607 0.0734874 2.59764
Ar 3.85354 -0.0399684 2.58616
Ar -3.71413 0.0616305 2.52455
Ar -0.046551 3.71125 2.67443
Ar 0.0173647 -3.88364 2.83734
Ar 3.78447 3.77858 2.77557
Ar -4.01525 3.69788 2.72988
Ar -3.79555 -3.5935 2.63729
Ar 3.81011 -3.77865 2.69535
Ar 0.0529167 0.186705 -2.69464
Ar 3.83142 0.105057 -2.5769
Ar -3.77163 -0.0578575 -2.68194
Ar 0.00369951 3.72579 -2.78387
Ar 0.020809 -3.69631 -2.6988
Ar 3.65112 4.05301 -2.52305
Ar -3.73793 3.68409 -2.95225
Ar -3.8163 -3.83206 -2.42167
Ar 3.72894 -3.59743 -2.57838
Ar 1.92189 1.69407 5.33831
Ar -1.83822 1.75096 5.2676
Ar -1.89045 -2.01537 5.60192
Ar 1.90361 -1.95858 5.3865
Ar 1.98422 2.04448 -5.54266
Ar -1.73026 1.87503 -5.54825
Ar -1.90287 -2.03773 -5.1986
Ar 1.74659 -1.98585 -5.49146
38
Atoms. Timestep: 70000
Ar 1.94921 1.93168 0.1256
Ar 5.82303 1.83655 0.181682
Ar 2.00211 5.93116 -0.23119
Ar -1.9766 1.8277 -0.0565535
Ar -5.83351 1.62644 0.149409
Ar -1.90944 5.93484 0.123522
Ar -1.9665 -1.93866 -0.168906
Ar -5.66067 -2.14442 -0.0875893
Ar -1.89168 -5.82319 0.019988
Ar 1.8012 -1.87744 -0.0285982
Ar 5.64462 -2.06537 -0.0925158
Ar 2.069 -5.62778 0.0213081
Ar -0.159656 -0.0105358 2.49036
Ar 3.68525 0.0116093 2.62594
Ar -3.66845 -0.139619 2.74742
Ar -0.0964982 3.85611 2.37791
Ar 0.0439921 -3.76148 2.68187
Ar 3.83045 3.94438 2.82334
Ar -3.91409 3.75442 2.66934
Ar -3.55088 -3.93844 2.70329
Ar 3.8265 -3.78699 2.83858
Ar -0.0371508 0.0558825 -2.64203
Ar 3.62315 0.0310515 -2.5634
Ar -4.00775 -0.0817341 -2.79455
Ar 0.00690257 3.76853 -2.48156
Ar 0.102962 -3.73774 -2.73876
Ar 4.05651 3.63754 -2.49021
Ar -3.84911 3.69235 -2.61538
Ar -3.68678 -3.89545 -2.8438
Ar 3.93032 -3.87954 -3.02577
Ar 1.89868 1.93263 5.23316
Ar -1.79858 2.13499 5.35705
Ar -1.93977 -1.75487 5.431
Ar 1.69511 -1.60581 5.51794
Ar 1.99103 1.99461 -5.1055
Ar -1.79945 1.81372 -5.30522
Ar -2.1026 -1.95567 -5.39726
Ar 1.87112 -1.69042 -5.44992
38
Atoms. Timestep: 80000
Ar 1.85621 2.01339 0.010112
Ar 5.45157 1.97692 -0.194169
Ar 2.01966 5.60028 0.226833
Ar -1.79176 1.91901 -0.205527
Ar -5.78613 2.01999 -0.226381
Ar -1.74982 5.67575 -0.142662
Ar -1.62964 -1.95155 0.0344718
Ar -5.89444 -2.13646 -0.0660762
Ar -1.65668 -5.96961 0.102776
Ar 2.02503 -1.76117 0.0260728
Ar 5.63873 -1.83121 -0.186426
Ar 2.19047 -5.68211 0.134344
Ar -0.138551 0.00276245 2.61919
Ar 3.74201 0.0712652 2.73372
Ar -3.83238 0.0265679 2.4258
Ar 0.165758 3.68217 2.86175
Ar 0.00174814 -3.89239 2.68001
Ar 4.24028 3.65841 2.93097
Ar -3.83787 3.88941 2.42726
Ar -3.75902 -3.96208 2.40376
Ar 4.16975 -3.50586 2.71588
Ar 0.189645 -0.110306 -2.53054
Ar 3.79446 0.172436 -2.96984
Ar -3.69601 -0.071838 -2.51264
Ar -0.0134333 3.83591 -2.65033
Ar -0.0489156 -3.8762 -2.46157
Ar 3.56768 3.83309 -2.67304
Ar -3.7344 3.80791 -2.80564
Ar -3.69161 -4.11775 -2.36375
Ar 3.83972 -3.71046 -2.77835
Ar 1.66351 1.75922 5.58741
Ar -2.43276 2.12807 5.37661
Ar -2.0704 -1.71223 5.33526
Ar 1.53057 -1.95999 5.31245
Ar 1.80693 2.01568 -5.42697
Ar -1.8631 1.79923 -5.18124
Ar -2.01753 -1.81433 -5.16909
Ar 1.75272 -1.8209 -5.40044
38
Atoms. Timestep: 90000
Ar 1.84495 1.78976 -0.14434
Ar 5.56976 2.25215 -0.162257
Ar 1.73982 5.56353 0.112254
Ar -1.8268 1.87722 -0.0611819
Ar -5.66692 2.02248 -0.07962
Ar -2.08154 5.56681 0.104958
Ar -1.95657 -2.08942 -0.156835
Ar -5.74993 -1.69861 -0.0905248
Ar -1.97149 -5.99035 -0.00778299
Ar 2.02848 -1.82791 -0.018462
Ar 5.65819 -1.55034 0.238881
Ar 2.0228 -5.86982 0.197007
Ar 0.129884 -0.025586 2.59379
Ar 3.7086 0.15192 2.90977
Ar -3.68707 0.164724 2.63117
Ar -0.087002 3.60471 2.73961
Ar 0.131825 -3.71596 2.40348
Ar 3.82927 3.86471 2.84033
Ar -3.96942 3.80816 2.6659
Ar -3.9308 -3.743 2.53599
Ar 3.77315 -3.68131 2.79477
Ar 0.0915299 -0.0579891 -2.74899
Ar 4.18005 0.110421 -2.88975
Ar -3.74528 -0.0200535 -2.75171
Ar -0.046328 3.86395 -2.68649
Ar 0.0332325 -3.82599 -2.59815
Ar 3.64182 4.04122 -3.0052
Ar -3.81357 3.80231 -2.74272
Ar -3.98136 -4.09205 -2.57163
Ar 4.1281 -3.62708 -2.39095
Ar 1.91705 1.95136 5.59269
Ar -1.79647 1.78979 5.57142
Ar -1.88533 -1.8365 5.18729
Ar 1.82147 -1.9681 5.4927
Ar 1.99955 1.87369 -5.48025
Ar -1.86201 1.89081 -5.24242
Ar -2.08817 -1.97543 -5.34385
Ar 1.89851 -2.39323 -5.43891
38
Atoms. Timestep: 100000
Ar 1.70209 1.82282 -0.0922175
Ar 5.36262 2.17344 -0.171667
Ar 1.98492 5.65034 -0.00163845
Ar -1.95899 1.97441 -0.0196427
Ar -5.7541 1.82346 -0.0697202
Ar -1.89512 5.81218 -0.226035
Ar -1.86806 -1.66877 0.0178122
Ar -5.74158 -1.90264 0.0980883
Ar -2.02227 -5.54342 -0.0657931
Ar 1.97444 -1.87471 0.10642
Ar 5.9352 -1.81139 0.212351
Ar 1.96579 -5.7436 0.197357
Ar 0.0878732 -0.0444968 2.66537
Ar 3.63077 0.166376 2.6346
Ar -3.79721 -0.089403 2.70165
Ar -0.0890446 3.67044 2.80776
Ar 0.17588 -3.82968 2.8057
Ar 3.76505 3.69924 2.74174
Ar -3.9066 3.6282 2.58229
Ar -4.02651 -4.06739 2.70623
Ar 3.89826 -3.63151 2.71732
Ar 0.0379753 -0.137022 -2.70999
Ar 3.88589 -0.138367 -2.70671
Ar -3.84777 0.0834183 -2.78439
Ar -0.189429 3.85338 -2.79829
Ar 0.151746 -3.96963 -2.57867
Ar 3.82748 4.10086 -2.8828
Ar -3.99595 3.8651 -2.57888
Ar -3.76594 -3.70946 -2.88101
Ar 4.11247 -3.96943 -2.36038
Ar 2.00027 2.125 5.52444
Ar -1.78605 1.60129 5.39045
Ar -1.76542 -2.10724 5.25862
Ar 1.8524 -1.63414 5.41513
Ar 1.93659 1.9 -5.28872
Ar -1.95834 1.98417 -5.45471
Ar -1.82674 -1.9105 -5.57549
Ar 1.90941 -2.15031 -5.33657
38
Atoms. Timestep: 110000
Ar 1.8529 1.9407 -0.0245614
Ar 5.41981 2.39097 -0.135018
Ar 1.75634 5.7394 -0.131274
Ar -1.75775 1.88911 0.0602308
Ar -5.55057 1.74759 -0.080821
Ar -2.00261 5.56732 0.126997
Ar -1.75647 -1.79952 -0.188193
Ar -6.00262 -1.85151 0.00715432
Ar -1.81939 -5.50384 0.0527024
Ar 2.07008 -1.9297 0.0136952
Ar 5.80362 -1.81359 0.0881054
Ar 1.77672 -5.72741 0.339458
Ar 0.227744 -0.192657 2.60282
Ar 3.77857 0.086675 2.61256
Ar -3.55667 0.0662312 2.60157
Ar -0.0815424 3.67426 2.69698
Ar -0.176775 -3.67668 2.7112
Ar 3.65021 3.8441 2.80905
Ar -3.99528 3.73769 2.71743
Ar -3.8194 -3.61643 2.55436
Ar 3.98198 -3.79849 2.81122
Ar 0.0925982 -0.0343433 -2.65273
Ar 3.87303 0.0468613 -2.45325
Ar -3.65054 0.0129702 -2.64098
Ar -0.176136 3.73501 -2.63196
Ar 0.156814 -4.11432 -2.75329
Ar 3.52811 3.8386 -2.80441
Ar -3.67157 3.76863 -2.9084
Ar -3.95804 -3.89697 -2.69874
Ar 3.97242 -3.89682 -2.54536
Ar 1.70656 1.80684 5.32811
Ar -2.00272 1.9023 5.38114
Ar -1.79464 -1.90174 5.4889
Ar 1.99516 -2.01548 5.60355
Ar 1.69087 2.04101 -5.74106
Ar -1.97984 1.79414 -5.47746
Ar -1.61569 -2.14621 -5.30647
Ar 2.0367 -1.71373 -5.43324
38
Atoms. Timestep: 120000
Ar 1.84514 2.01811 0.152201
Ar 5.6395 1.97099 -0.0491475
Ar 1.83271 5.77757 0.208664
Ar -1.97956 1.9113 -0.0545771
Ar -5.79009 2.05518 -0.14349
Ar -2.33612 5.62387 -0.200966
Ar -1.87171 -1.80476 0.147966
Ar -6.01442 -1.59985 0.168844
Ar -1.48781 -6.10212 0.0214933
Ar 2.00065 -1.91981 -0.0653823
Ar 5.8262 -1.90752 0.138923
Ar 2.20305 -5.73014 -0.011364
Ar 0.00691704 0.0674633 2.69518
Ar 3.54197 0.00267202 2.60313
Ar -4.0235 -0.0254014 2.81535
Ar -0.0559762 3.78967 2.61454
Ar 0.154831 -4.06463 2.60202
Ar 4.04547 3.89384 2.82234
Ar -3.89481 3.94827 2.62687
Ar -3.62995 -4.01896 2.34467
Ar 3.99555 -3.91865 2.76753
Ar -0.0244289 0.127154 -2.71411
Ar 3.81907 -0.0336928 -2.75567
Ar -3.64393 -0.0842414 -2.63114
Ar 0.135399 3.79328 -2.80079
Ar 0.0953966 -3.68871 -2.5075
Ar 3.79433 3.99649 -2.52187
Ar -3.47557 3.66376 -3.02544
Ar -3.82821 -3.90333 -2.00091
Ar 3.85787 -3.76879 -3.04439
Ar 1.72029 1.87533 5.39683
Ar -2.0607 2.00303 5.44032
Ar -1.97451 -1.7177 5.39845
Ar 1.88295 -1.96851 5.35153
Ar 2.00895 2.03313 -5.28031
Ar -1.94666 1.58932 -5.78385
Ar -1.98279 -2.03802 -5.26752
Ar 1.61651 -1.8446 -5.45841
38
Atoms. Timestep: 130000
Ar 2.01764 1.87316 -0.0258617
Ar 5.74749 1.93189 -0.134658
Ar 1.80219 5.94748 -0.153919
Ar -1.95515 1.8032 0.0992031
Ar -5.75979 2.16688 -0.194012
Ar -1.90937 5.77536 0.312268
Ar -1.71839 -2.04304 0.224431
Ar -6.74768 -1.65895 -0.433457
Ar -1.83393 -6.05297 0.285104
Ar 1.99718 -1.84942 0.125851
Ar 5.7317 -1.7068 0.120342
Ar 2.28736 -5.7391 0.0216145
Ar 0.355797 0.102372 2.47947
Ar 4.0612 0.359319 2.80776
Ar -4.69472 -0.293493 2.27281
Ar 0.103753 3.73052 2.65195
Ar 0.404096 -3.8577 2.68686
Ar 3.92923 4.16789 2.76216
Ar -3.87856 3.59776 2.92438
Ar -4.72384 -3.82803 1.72611
Ar 4.18689 -3.36775 2.87306
Ar -0.0373404 -0.194378 -2.46098
Ar 3.92948 -0.0368195 -2.80216
Ar -3.81692 -0.310079 -2.27388
Ar 0.123711 3.56591 -2.53771
Ar 0.0681687 -3.87581 -2.36286
Ar 3.75787 3.91516 -2.88331
Ar -3.64849 3.52265 -2.8777
Ar -4.37967 -3.93294 -2.29527
Ar 4.06772 -3.62829 -2.6168
Ar 2.34799 2.36585 5.7114
Ar -1.40088 1.29045 5.375
Ar -2.29955 -2.21887 4.14811
Ar 2.08039 -1.29442 5.38672
Ar 1.95077 1.94146 -5.30325
Ar -1.98031 1.8269 -5.57429
Ar -2.03523 -2.05114 -4.81765
Ar 1.87117 -1.94321 -5.24683
38
Atoms. Timestep: 140000
Ar 1.7179 1.81152 0.0309991
Ar 6.1459 1.59634 -0.0688222
Ar 1.32542 6.69755 -0.0537785
Ar -1.96189 1.80153 0.00311584
Ar -5.68798 1.68439 -0.0555385
Ar -2.29833 5.37159 -0.252551
Ar -2.07099 -1.72077 0.0722984
Ar -5.7363 -2.0914 0.128993
Ar -1.73927 -5.67349 0.204018
Ar 2.02024 -2.02886 -0.312817
Ar 5.86476 -2.13534 -0.0150711
Ar 2.0767 -5.69785 0.149515
Ar -0.153706 0.0225106 2.63892
Ar 3.75224 -0.187226 2.40747
Ar -3.82184 0.0966193 3.03328
Ar -0.166535 4.02559 2.47972
Ar 0.126498 -3.53139 2.44195
Ar 3.55967 4.27246 1.95474
Ar -4.01427 3.94039 3.14312
Ar -3.94249 -4.00252 2.78229
Ar 3.8658 -3.82738 2.96147
Ar 0.0163953 -0.00740373 -2.566
Ar 3.78038 0.105987 -2.49524
Ar -3.63137 0.117403 -2.8366
Ar -0.00897883 3.81469 -2.42747
Ar 0.0584267 -4.18049 -2.65119
Ar 3.7343 4.09545 -2.05621
Ar -4.15848 3.81365 -3.27405
Ar -3.80359 -3.74264 -2.65564
Ar 3.95049 -4.24899 -2.6631
Ar 2.07382 2.22727 4.52341
Ar -1.74707 1.52361 5.8304
Ar -1.779 -2.27858 5.27348
Ar 1.85323 -1.72727 5.20443
Ar 2.11754 2.23743 -4.93242
Ar -1.56011 1.88627 -5.53289
Ar -1.77743 -2.04779 -5.36919
Ar 2.0219 -2.01188 -5.04506
38
Atoms. Timestep: 150000
Ar 1.78057 1.87426 0.076135
Ar 5.8208 1.8414 -0.0526157
Ar 1.85617 5.82509 -0.296955
Ar -1.9422 1.84406 0.0593453
Ar -5.87998 1.75525 0.0112158
Ar -2.02514 5.71402 0.00784888
Ar -1.78653 -1.8162 -0.0178687
Ar -5.37284 -2.08462 -0.0381199
Ar -1.74542 -5.62663 0.0564553
Ar 1.83631 -1.80789 0.122181
Ar 5.63612 -1.83007 -0.0425893
Ar 2.10163 -5.70005 0.191052
Ar -0.0304828 -0.00362066 2.75542
Ar 3.63224 0.0566982 2.68501
Ar -3.87982 0.00277972 2.65799
Ar -0.163251 3.91275 2.57934
Ar 0.160016 -3.77299 2.77027
Ar 3.68918 3.81862 2.49088
Ar -3.93116 3.79605 2.50419
Ar -3.56775 -3.70274 2.6626
Ar 3.92242 -3.66598 2.61747
Ar -0.144176 0.0339394 -2.69558
Ar 3.81659 -0.0491797 -2.56319
Ar -3.92202 -0.0360008 -2.70651
Ar -0.0983012 3.69592 -2.55109
Ar 0.110924 -3.70719 -2.55327
Ar 3.77814 3.61916 -2.60581
Ar -3.86732 3.68028 -2.49192
Ar -3.65587 -4.05547 -2.89017
Ar 3.7528 -3.88684 -2.54856
Ar 1.85672 2.15439 5.31215
Ar -1.88602 1.91523 5.12147
Ar -1.79261 -2.01751 5.42255
Ar 2.00388 -2.05886 5.47432
Ar 1.7883 1.92436 -5.38857
Ar -2.02727 2.1598 -5.41904
Ar -1.87201 -1.83616 -5.3922
Ar 2.04937 -1.96506 -5.32384
38
Atoms. Timestep: 160000
Ar 1.75038 1.96599 0.0737793
Ar 5.57374 1.65694 0.0479205
Ar 1.90348 5.68496 0.0553189
Ar -1.97247 1.83833 -0.0377687
Ar -5.95585 1.76531 -0.218719
Ar -2.04371 5.60312 0.00578527
Ar -1.8285 -1.9331 -0.0706767
Ar -5.45161 -1.93568 0.11067
Ar -1.53197 -5.59179 0.142185
Ar 1.87979 -1.7556 -0.0617564
Ar 5.54465 -2.14301 0.0183163
Ar 2.4575 -5.38972 -0.0170518
Ar -0.0617045 0.131648 2.59316
Ar 3.74649 0.0661039 2.6969
Ar -3.73633 0.00993711 2.63141
Ar -0.0305582 3.88786 2.72199
Ar 0.095217 -3.55031 2.67504
Ar 3.96988 3.94672 2.56965
Ar -3.94405 3.61703 2.71055
Ar -3.57528 -3.80069 2.58358
Ar 3.78665 -3.76347 2.91984
Ar -0.0907616 0.0796248 -2.6618
Ar 3.74804 -0.0539779 -2.66213
Ar -3.95458 -0.268142 -2.58512
Ar -0.172801 3.80115 -2.70976
Ar 0.112061 -3.70063 -2.73863
Ar 3.71612 3.53682 -2.56007
Ar -3.83679 3.55025 -2.77907
Ar -3.63582 -4.02793 -2.63061
Ar 3.86305 -3.69371 -2.86392
Ar 2.00452 1.9515 5.42273
Ar -1.871 1.90633 5.35042
Ar -2.01549 -1.71801 5.4466
Ar 1.66414 -1.7549 5.49352
Ar 1.88026 1.79936 -5.38217
Ar -1.90195 1.91397 -5.43316
Ar -1.99673 -1.78637 -5.3695
Ar 1.91399 -1.84493 -5.48746
38
Atoms. Timestep: 170000
Ar 1.95109 1.96902 0.00153866
Ar 5.58273 2.15175 0.0482303
Ar 1.78962 5.64764 -0.254943
Ar -2.00265 1.88645 -0.105847
Ar -5.81 1.78255 -0.0205733
Ar -2.10055 5.73273 -0.10829
Ar -1.90324 -1.97471 0.052323
Ar -5.71182 -2.00632 0.022459
Ar -1.86056 -5.74049 0.05771
Ar 2.05652 -1.77513 0.0341661
Ar 5.75568 -1.81626 0.075173
Ar 2.05747 -5.5654 -0.0804213
Ar -0.147568 0.0552726 2.64836
Ar 3.82398 0.0661374 2.67458
Ar -3.84803 -0.0261593 2.74106
Ar -0.0318333 3.74484 2.54291
Ar 0.0959688 -3.68262 2.6546
Ar 3.75947 4.00233 2.56014
Ar -3.88351 3.69369 2.62632
Ar -3.78956 -3.80415 2.80851
Ar 3.88513 -3.82132 2.72498
Ar 0.0593957 0.036952 -2.63369
Ar 3.7848 0.0690966 -2.57611
Ar -3.75828 -0.0548403 -2.67757
Ar -0.101598 3.75996 -2.70926
Ar 0.203973 -3.71203 -2.50084
Ar 3.74192 3.75873 -2.79297
Ar -3.82197 3.79508 -2.80209
Ar -3.69245 -3.93478 -2.45462
Ar 4.0534 -3.80896 -2.77075
Ar 1.74458 1.80406 5.43236
Ar -1.94411 1.97001 5.26001
Ar -1.92212 -1.93773 5.4336
Ar 1.8387 -1.92503 5.4167
Ar 1.82733 1.80862 -5.40215
Ar -1.96253 1.73354 -5.22221
Ar -1.75979 -1.98666 -5.18369
Ar 2.04238 -1.89485 -5.5197
38
Atoms. Timestep: 180000
Ar 1.97439 1.8797 0.0544527
Ar 5.72785 2.21687 -0.150505
Ar 1.70304 5.74575 0.00800202
Ar -1.75595 1.78222 -0.0925871
Ar -5.67963 1.67207 -0.0759052
Ar -2.01834 5.62019 -0.00684466
Ar -1.78382 -1.98697 -0.0312713
Ar -5.5045 -2.02125 -0.050867
Ar -1.81605 -5.68054 -0.0578263
Ar 1.88342 -1.78171 0.0463425
Ar 5.61879 -1.65303 0.0757995
Ar 1.8727 -5.52502 0.0452457
Ar 0.0454655 0.0527422 2.64146
Ar 3.89764 0.100016 2.79278
Ar -3.73882 -0.039495 2.74721
Ar -0.0506478 3.85032 2.73866
Ar 0.216155 -3.66059 2.82809
Ar 3.69264 3.93265 2.57948
Ar -3.84665 3.69864 2.61588
Ar -3.65408 -3.75318 2.65648
Ar 3.96257 -3.74348 2.7784
Ar 0.0819214 -0.0466093 -2.74156
Ar 3.69343 0.111362 -2.72035
Ar -3.76582 -0.256749 -2.69996
Ar -0.0699827 3.81722 -2.86003
Ar 0.0352421 -3.74041 -2.58501
Ar 3.7698 3.984 -2.53763
Ar -3.75527 3.56602 -2.62105
Ar -3.79242 -3.98018 -2.74175
Ar 3.71353 -3.77619 -2.67264
Ar 1.81084 2.12761 5.36755
Ar -2.01579 1.95663 5.52089
Ar -2.12026 -1.94708 5.54093
Ar 1.76821 -1.76779 5.53588
Ar 1.8801 1.76362 -5.39602
Ar -1.9114 1.66241 -5.45304
Ar -1.86813 -2.08421 -5.65562
Ar 1.8018 -2.09457 -5.4231
38
Atoms. Timestep: 190000
Ar 1.88044 1.98508 0.031691
Ar 5.70765 2.19909 -0.00269385
Ar 1.95452 5.84739 -0.251768
Ar -1.92961 1.69617 -0.0837754
Ar -5.6981 1.663 0.159072
Ar -2.15521 5.84913 -0.0960719
Ar -2.16488 -1.89804 -0.00605157
Ar -5.6822 -2.04358 -0.0633903
Ar -1.91782 -6.02126 0.08883
Ar 1.7542 -1.7527 0.0031663
Ar 5.71044 -1.54611 0.1143
Ar 1.9975 -5.4276 0.175577
Ar -0.094684 -0.028229 2.77231
Ar 3.93592 0.283828 2.72721
Ar -3.85675 -0.31703 2.67429
Ar 0.164767 3.95304 2.54678
Ar -0.145986 -3.69868 2.64556
Ar 3.91397 3.90027 2.85627
Ar -3.77734 3.65521 2.68755
Ar -3.92331 -4.04585 2.51862
Ar 3.74808 -3.47471 2.77016
Ar 0.00318511 0.00646299 -2.80366
Ar 3.78302 0.0851783 -2.80996
Ar -3.76928 -0.17183 -2.78276
Ar 0.131375 3.77234 -2.69652
Ar -0.0204169 -3.83838 -2.46573
Ar 3.91155 3.95914 -2.94303
Ar -3.94359 3.74527 -2.69094
Ar -3.62633 -3.94674 -2.95777
Ar 3.9785 -3.67169 -2.40402
Ar 2.01567 1.96115 5.38802
Ar -1.80268 1.7631 5.66751
Ar -1.91985 -1.89845 5.51458
Ar 1.84295 -1.79717 5.42492
Ar 1.68748 1.67323 -5.64392
Ar -2.08432 1.87268 -5.30398
Ar -1.67121 -1.94342 -5.51964
Ar 2.06435 -2.34831 -5.24073
38
Atoms. Timestep: 200000
Ar 1.87364 1.85606 -0.0524751
Ar 5.64222 2.03467 -0.301729
Ar 1.67213 5.84897 -0.13023
Ar -1.76481 1.73363 0.0249653
Ar -5.71898 1.85247 0.0865694
Ar -2.10135 5.46331 -0.033541
Ar -1.8956 -2.0823 -0.00964099
Ar -5.57245 -1.97935 -0.282176
Ar -1.84367 -5.87575 -0.191793
Ar 1.90932 -1.82331 0.180434
Ar 5.93744 -1.86182 0.241728
Ar 2.01958 -5.64976 0.192922
Ar -0.0296032 -0.00151125 2.63251
Ar 3.8184 0.399252 2.77922
Ar -3.78903 -0.116083 2.61933
Ar 0.126794 3.78496 2.60662
Ar -0.0311908 -3.84919 2.7562
Ar 3.90794 3.94879 2.33726
Ar -3.75271 3.55424 2.67564
Ar -3.988 -4.04425 2.5425
Ar 3.67824 -3.54747 3.03354
Ar 0.0756982 -0.145697 -2.63527
Ar 3.72072 -0.00275405 -2.67567
Ar -3.69138 0.0234026 -2.68372
Ar -0.166175 3.71931 -2.67054
Ar 0.145004 -3.83106 -2.62792
Ar 3.53838 3.85794 -2.72087
Ar -3.9289 3.67563 -2.7528
Ar -3.69945 -3.90401 -2.82818
Ar 3.75498 -3.62273 -2.50267
Ar 2.28269 2.39535 5.40803
Ar -1.63571 1.95448 5.72574
Ar -2.09503 -1.8959 5.34845
Ar 1.67659 -1.43253 5.51981
Ar 1.92646 1.88832 -5.30014
Ar -1.97232 1.66806 -5.42366
Ar -1.89206 -2.08802 -5.45231
Ar 1.86422 -1.90435 -5.4361
38
Atoms. Timestep: 210000
Ar 1.96531 1.84144 -0.0328336
Ar 5.79197 2.22325 0.109645
Ar 1.72864 5.68801 -0.16425
Ar -1.86927 1.85091 -0.12936
Ar -5.89162 1.63364 -0.120787
Ar -1.94795 5.62887 -0.302192
Ar -1.75892 -2.11824 0.246077
Ar -5.68843 -2.08924 0.163398
Ar -1.89205 -5.73496 0.104786
Ar 1.89621 -1.80976 -0.0264979
Ar 5.711 -1.55824 -0.0272345
Ar 2.00861 -5.5465 0.0407197
Ar 0.027709 0.0655632 2.73096
Ar 3.68725 0.0775601 2.68719
Ar -3.82101 0.0317353 2.63627
Ar -0.136943 3.79285 2.59229
Ar 0.192542 -3.7238 2.83614
Ar 3.49215 3.82499 2.74734
Ar -3.92019 3.84809 2.41327
Ar -3.71973 -4.01189 2.91608
Ar 3.8184 -3.59172 2.61955
Ar 0.0444457 -0.128758 -2.51368
Ar 3.80285 0.0538717 -2.74053
Ar -3.68829 -0.0608414 -2.51016
Ar 0.0830928 3.58044 -2.69363
Ar -0.00749139 -3.92067 -2.76759
Ar 3.91247 3.92723 -2.7878
Ar -3.7481 3.68519 -2.83593
Ar -3.71422 -3.82332 -2.52495
Ar 3.57869 -3.72294 -2.74509
Ar 1.7263 1.95948 5.47343
Ar -1.95841 1.97159 5.27221
Ar -1.9515 -1.79916 5.34394
Ar 1.97769 -1.77476 5.5276
Ar 2.01041 1.99371 -5.55966
Ar -1.69808 1.63274 -5.19807
Ar -1.97031 -2.02732 -5.24444
Ar 1.92879 -1.86804 -5.53621
38
Atoms. Timestep: 220000
Ar 1.89132 1.90106 -0.0560037
Ar 5.73606 2.01131 -0.010851
Ar 1.81512 5.73721 -0.1689
Ar -1.96437 1.80624 0.103783
Ar -5.88996 1.86141 0.0176564
Ar -2.01008 5.71626 -0.0215906
Ar -1.7532 -1.93466 0.0603702
Ar -5.54061 -1.94438 -0.0372533
Ar -1.82435 -5.89306 0.099169
Ar 1.96738 -1.78741 0.0819549
Ar 5.72812 -1.72878 0.0851494
Ar 1.95304 -5.73366 0.112047
Ar 0.00385675 0.21001 2.59995
Ar 3.85801 0.243299 2.76875
Ar -3.84027 0.0213106 2.63227
Ar 0.00638013 3.82561 2.55524
Ar 0.0196517 -3.81792 2.65641
Ar 3.7281 3.88839 2.64249
Ar -3.78854 3.85242 2.56519
Ar -3.70379 -3.76664 2.45828
Ar 3.77403 -3.6347 2.82271
Ar 0.0463201 -0.0464198 -2.68036
Ar 3.87072 0.00736879 -2.59703
Ar -3.6901 -0.127241 -2.62874
Ar -0.222154 3.67224 -2.64503
Ar 0.16916 -3.74937 -2.55571
Ar 3.62574 3.75677 -2.72565
Ar -3.99852 3.64647 -2.71216
Ar -3.65118 -3.95933 -2.58036
Ar 4.01835 -3.86707 -2.43205
Ar 1.94025 2.0782 5.20474
Ar -1.89151 1.85757 5.23331
Ar -1.951 -1.96589 5.21925
Ar 1.73754 -1.73326 5.31544
Ar 1.76751 1.86163 -5.52269
Ar -2.06796 1.8172 -5.3302
Ar -1.81004 -2.13204 -5.28098
Ar 1.94299 -1.94915 -5.24861
38
Atoms. Timestep: 230000
Ar 1.8607 1.94583 -0.0257213
Ar 5.81999 2.00398 -0.185003
Ar 1.71052 5.88305 -0.0778686
Ar -1.88801 1.87673 0.0019695
Ar -5.66425 1.67272 -0.090352
Ar -2.06952 5.73925 -0.0584235
Ar -1.81238 -1.92134 0.108977
Ar -5.63575 -2.08174 -0.0216361
Ar -1.89807 -5.78159 0.188354
Ar 1.99893 -1.91979 0.0819501
Ar 5.77045 -1.8254 0.110016
Ar 1.88894 -5.66863 0.0846002
Ar 0.0252714 0.143452 2.58359
Ar 3.75126 0.233766 2.62874
Ar -3.80784 0.0154024 2.5484
Ar -0.0430978 3.87463 2.45737
Ar -0.0223631 -3.78998 2.7911
Ar 3.75712 3.81977 2.41281
Ar -3.85137 3.6653 2.47078
Ar -3.65788 -3.86678 2.6275
Ar 3.85601 -3.70965 2.71414
Ar 0.0257694 0.0542921 -2.59873
Ar 3.8087 0.00531457 -2.53016
Ar -3.67226 -0.242477 -2.65923
Ar -0.214983 3.75599 -2.67428
Ar -0.0270939 -3.87305 -2.55061
Ar 3.75147 3.81001 -2.6116
Ar -3.87575 3.82125 -2.65028
Ar -3.79737 -4.07561 -2.7264
Ar 3.99846 -3.84491 -2.42344
Ar 1.91283 2.0149 5.3323
Ar -1.97775 1.95486 5.14615
Ar -1.9345 -1.75978 5.43336
Ar 1.89232 -1.74772 5.2951
Ar 1.82268 1.80802 -5.34427
Ar -1.98904 1.78772 -5.3055
Ar -1.75763 -1.93138 -5.35689
Ar 1.94748 -1.8454 -5.12682
38
Atoms. Timestep: 240000
Ar 1.735 1.86888 -0.00975362
Ar 5.80519 2.03739 0.214645
Ar 2.11553 5.63562 0.00727143
Ar -1.95506 1.79662 -0.15535
Ar -5.73019 1.34614 -0.128201
Ar -1.86069 5.80342 -0.334921
Ar -1.87294 -1.82643 0.0982202
Ar -5.49264 -2.48559 0.282891
Ar -2.30898 -5.54323 -0.154312
Ar 1.87834 -1.89729 -0.0425543
Ar 5.76537 -1.56339 0.0192648
Ar 1.92797 -5.79382 0.0333691
Ar 0.000158469 0.168678 2.64264
Ar 3.94124 0.0517005 2.832
Ar -3.69967 -0.0457633 2.75893
Ar -0.316171 3.77581 2.52132
Ar 0.0991903 -3.76629 2.65015
Ar 3.68768 3.74209 2.6408
Ar -4.03205 3.66883 2.11568
Ar -3.82428 -3.81484 3.07135
Ar 3.88352 -3.78012 2.67574
Ar -0.0940322 -0.0633524 -2.73847
Ar 3.72804 0.103392 -2.63615
Ar -3.87399 -0.295202 -2.78637
Ar 0.0662463 3.75044 -2.67773
Ar -0.0215341 -3.92787 -2.60708
Ar 3.94249 3.78618 -2.6398
Ar -3.76185 3.78627 -2.62276
Ar -4.06223 -3.81846 -3.05854
Ar 4.04538 -3.82616 -2.24876
Ar 1.75544 2.13044 5.28117
Ar -1.94345 2.24239 5.64559
Ar -1.70454 -1.68305 5.48027
Ar 2.0458 -1.57124 5.51954
Ar 1.77959 2.07153 -5.54956
Ar -2.03941 1.73215 -5.29097
Ar -1.6775 -2.08971 -5.45167
Ar 2.07105 -1.70517 -5.35789
38
Atoms. Timestep: 250000
Ar 1.94485 1.98821 0.0276274
Ar 5.68853 2.16775 0.0374047
Ar 1.85309 5.80332 0.0795647
Ar -1.93501 1.88896 -0.107687
Ar -5.75307 1.82149 -0.163012
Ar -2.10549 5.78399 -0.343594
Ar -1.99367 -2.04381 0.0945639
Ar -5.83058 -1.99922 -0.0909598
Ar -1.98945 -5.69353 0.0439035
Ar 2.01753 -1.86475 0.0797504
Ar 5.76555 -1.76767 0.02409
Ar 1.81791 -5.62676 0.119434
Ar 0.0385525 0.0649839 2.6423
Ar 3.77624 0.125687 2.69846
Ar -3.83879 -0.226237 2.56573
Ar -0.141367 3.75623 2.65053
Ar 0.060728 -3.72243 2.56594
Ar 3.68225 3.94764 2.66613
Ar -3.82354 3.75016 2.5635
Ar -3.74736 -3.82344 2.73957
Ar 3.87527 -3.80969 2.66501
Ar -0.0794671 0.00392405 -2.45502
Ar 3.69701 0.108679 -2.47073
Ar -3.75237 -0.26695 -2.55832
Ar 0.0634724 3.79276 -2.67975
Ar 0.0649961 -3.72788 -2.50692
Ar 3.92008 4.0055 -2.84216
Ar -3.76745 3.50625 -3.00037
Ar -3.88155 -4.02395 -2.58202
Ar 3.78712 -3.87605 -2.64601
Ar 1.91432 2.26653 5.34061
Ar -2.04179 1.76008 5.37739
Ar -1.76193 -2.03259 5.34876
Ar 1.94077 -1.75362 5.39478
Ar 2.01819 1.83041 -5.40875
Ar -1.75511 1.732 -5.48643
Ar -1.74255 -2.06259 -5.15738
Ar 2.01609 -1.7824 -5.22594
38
Atoms. Timestep: 260000
Ar 1.8378 1.96694 0.048388
Ar 5.60809 2.14743 -0.0239748
Ar 1.80376 5.75616 -0.0799807
Ar -1.8758 1.76679 0.0522594
Ar -5.7898 1.77723 -0.0339126
Ar -1.84419 5.59374 -0.0648084
Ar -1.87366 -1.92608 0.029286
Ar -5.6829 -2.0491 -0.202054
Ar -1.93171 -5.75844 -0.046455
Ar 1.77319 -1.8318 0.0331088
Ar 5.77692 -1.83635 0.138702
Ar 1.96714 -5.64857 0.265104
Ar -0.0612716 0.0690362 2.72111
Ar 3.749 0.164807 2.63052
Ar -4.01389 -0.0522773 2.74177
Ar 0.130924 3.89076 2.58886
Ar -0.00290801 -3.7586 2.74888
Ar 3.75681 4.03934 2.58826
Ar -3.86993 3.6569 2.49012
Ar -3.74881 -3.77545 2.71028
Ar 3.81309 -3.58933 2.76551
Ar -0.00194189 -0.062109 -2.63276