38
Atoms. Timestep: 0
Ar 1.668 1.873 0
Ar 5.651 1.903 0.003
Ar 1.878 5.656 -0.01
Ar -1.867 1.863 -0.007
Ar -5.65 1.873 -0.014
Ar -1.898 5.645 -0.014
Ar -1.857 -1.873 0
Ar -5.64 -1.903 -0.003
Ar -1.867 -5.656 0.01
Ar 1.878 -1.863 0.007
Ar 5.661 -1.873 0.014
Ar 1.909 -5.645 0.014
Ar 0.002 0.007 2.642
Ar 3.751 0.017 2.659
Ar -3.75 -0.003 2.646
Ar -0.008 3.756 2.646
Ar 0.012 -3.745 2.659
Ar 3.761 3.786 2.656
Ar -3.778 3.766 2.646
Ar -3.757 -3.773 2.663
Ar 3.781 -3.752 2.673
Ar 0.009 -0.007 -2.642
Ar 3.761 0.003 -2.646
Ar -3.74 -0.017 -2.659
Ar -0.002 3.746 -2.659
Ar 0.019 -3.756 -2.646
Ar 3.768 3.773 -2.663
Ar -3.771 3.752 -2.673
Ar -3.75 -3.786 -2.656
Ar 3.788 -3.766 -2.646
Ar 1.871 1.897 5.329
Ar -1.888 1.886 5.325
Ar -1.878 -1.873 5.332
Ar 1.881 -1.863 5.339
Ar 1.888 1.873 -5.332
Ar -1.871 1.863 -5.339
Ar -1.861 -1.897 -5.329
Ar 1.898 -1.886 -5.325
38
Atoms. Timestep: 10000
Ar 1.89166 2.06732 0.18782
Ar 5.39925 2.93801 0.0419316
Ar 2.05073 5.48052 -0.2025
Ar -1.91345 1.85098 -0.109001
Ar -5.88325 1.85502 -0.0110937
Ar -1.71703 5.50377 -0.399975
Ar -1.78062 -1.56667 0.467938
Ar -5.72611 -1.85588 0.27134
Ar -4.10577 -5.49949 0.289978
Ar 2.13637 -1.73762 0.114455
Ar 6.20834 -0.681722 0.242232
Ar 2.26007 -5.50624 -1.34144
Ar 0.0310382 0.522038 2.71138
Ar 4.18478 -0.209485 3.12992
Ar -3.88478 0.303045 2.86452
Ar -0.181995 3.96588 2.55516
Ar -0.160425 -4.49475 1.60863
Ar 3.60156 3.63149 2.91929
Ar -4.04046 3.91241 2.1315
Ar -4.21399 -3.39785 3.26689
Ar 4.62794 -4.09842 1.61807
Ar 0.112323 -0.111338 -2.59127
Ar 3.9952 0.689783 -2.49375
Ar -3.50474 -0.411441 -2.40157
Ar 0.387045 3.59852 -3.00098
Ar -1.22887 -3.99719 -2.21201
Ar 3.95569 4.52199 -3.11459
Ar -3.40368 3.38935 -2.87446
Ar -5.31684 -3.88945 -2.87855
Ar 5.12092 -3.22358 -1.9053
Ar 1.70661 0.650254 6.19003
Ar -1.70088 2.09584 5.79733
Ar -1.59267 -1.54303 5.26847
Ar 1.74611 -2.84569 4.51909
Ar 2.24472 1.33812 -5.53443
Ar -1.84415 1.6358 -5.77014
Ar -1.56435 -2.21773 -5.10215
Ar 2.10573 -2.66156 -4.25274
38
Atoms. Timestep: 20000
Ar 1.48038 1.69421 -0.495323
Ar 4.90474 2.9759 -0.452158
Ar 1.95307 5.35306 -0.557148
Ar -2.00465 0.771215 -0.426767
Ar -5.76375 2.71885 0.881463
Ar -3.55886 6.01636 0.124561
Ar -1.59734 -2.39503 1.75503
Ar -5.47111 -0.840685 0.961156
Ar -4.55114 -4.78437 0.922953
Ar 1.43253 -1.89637 -0.224085
Ar 7.44771 -0.183576 -0.175924
Ar 2.60513 -5.45891 0.295655
Ar 0.579256 0.267141 2.62112
Ar 3.88116 0.123451 1.6474
Ar -3.01734 0.738722 3.15849
Ar -1.03079 3.69916 1.55891
Ar -1.08089 -5.91604 -0.63738
Ar 2.61399 3.67578 3.15302
Ar -3.9537 4.51187 3.64534
Ar -3.92643 -2.77566 4.30083
Ar 1.8592 -2.93552 3.16079
Ar 0.31393 -0.130641 -3.33919
Ar 4.62728 -0.133937 -2.33405
Ar -2.96322 0.904967 -4.14179
Ar -1.38088 4.03073 -2.2865
Ar -0.266137 -3.91078 -3.52672
Ar 2.7765 3.01744 -3.62223
Ar -5.2956 3.33382 -2.6801
Ar -3.16953 -2.48891 -1.78532
Ar 5.60046 -3.09879 0.922406
Ar 2.91806 0.542011 5.28487
Ar -0.680217 2.51217 5.3614
Ar -0.677103 -1.82599 5.35996
Ar -0.357453 -5.98998 3.27984
Ar 2.95619 0.183638 -5.96339
Ar 0.0860676 2.69007 -6.19346
Ar -0.870688 -1.05901 -6.58161
Ar 3.58318 -3.93536 -2.97203
38
Atoms. Timestep: 30000
Ar 1.51643 1.88399 -0.271935
Ar 4.65768 3.98847 -0.703879
Ar 1.20593 5.5453 -0.729412
Ar -1.58878 0.293579 -0.0273183
Ar -4.18946 3.01171 0.0977754
Ar -2.80113 6.41523 -0.825513
Ar -1.66306 -2.85135 1.90431
Ar -4.79504 -1.60072 0.156754
Ar -3.28659 -5.95574 0.293079
Ar 1.30066 -1.67922 -0.0528303
Ar 7.29582 -0.734675 -0.251211
Ar 0.917536 -5.30323 0.978988
Ar 0.606811 0.339104 2.81203
Ar 4.08489 0.0308614 1.56017
Ar -3.22759 0.710286 3.2135
Ar -0.891842 3.68609 1.72741
Ar 0.0173453 -5.78143 -2.54688
Ar 2.74998 3.37608 2.89541
Ar -3.22861 4.51292 4.05842
Ar -4.34492 -3.82543 4.04525
Ar 2.22245 -2.73433 4.09604
Ar 0.0411299 0.0396929 -3.12212
Ar 4.19152 0.0187966 -1.96832
Ar -3.94969 0.428778 -2.70651
Ar -1.32497 3.2466 -2.33575
Ar -0.00737297 -3.29849 -5.3881
Ar 2.3377 3.03766 -3.65612
Ar -4.74732 4.3232 -3.35128
Ar -1.85284 -3.0273 -1.53636
Ar 4.43255 -3.40412 0.416119
Ar 3.40638 0.817652 5.73855
Ar -0.411626 2.58414 5.77905
Ar -1.53436 -1.57266 5.50067
Ar -0.501853 -5.25335 4.44646
Ar 3.14101 -0.479864 -5.49698
Ar -0.530634 2.98849 -5.94354
Ar -2.04776 -0.533435 -5.99891
Ar 2.80163 -3.24227 -2.80703
38
Atoms. Timestep: 40000
Ar 1.87511 2.14287 -0.423201
Ar 5.23935 3.35737 -1.65854
Ar 1.05588 5.90998 -0.860053
Ar -1.32344 0.186282 -0.103494
Ar -4.45622 2.40946 0.427853
Ar -2.81894 6.35732 0.0987169
Ar -1.53514 -2.7493 1.84496
Ar -4.5785 -1.51594 -0.109366
Ar -4.22492 -5.27061 1.20418
Ar 1.56162 -1.86069 -0.771273
Ar 6.2846 -0.380621 -0.526903
Ar -1.34059 -7.59352 1.68167
Ar 1.14452 -0.296843 2.33777
Ar 4.31476 1.4184 2.64271
Ar -2.49022 1.15777 3.86229
Ar -0.593464 3.60384 2.17918
Ar 0.869147 -5.55503 -0.503266
Ar 3.16308 5.08108 2.09615
Ar -4.33863 4.68924 3.09307
Ar -4.5265 -2.1265 3.9863
Ar 1.6123 -4.24199 3.37126
Ar 0.19256 0.427781 -3.36008
Ar 3.82615 0.188871 -3.19631
Ar -3.61419 0.183861 -3.04733
Ar -1.35619 3.38771 -1.72159
Ar 1.37236 -2.87535 -4.27265
Ar 1.94812 3.79139 -3.88774
Ar -4.67736 3.89739 -3.74064
Ar -1.65554 -3.13775 -2.04795
Ar 4.23159 -2.55452 1.54096
Ar 3.4163 -1.35523 5.00502
Ar 1.14481 1.83229 5.18231
Ar -0.478477 -1.7064 5.39034
Ar -2.13345 -5.21642 4.5064
Ar 1.86524 0.442474 -6.59902
Ar -1.69603 2.84484 -5.66314
Ar -1.84183 -1.60444 -5.75356
Ar 4.56414 -3.26806 -2.20505
38
Atoms. Timestep: 50000
Ar 1.93409 1.81408 -0.988073
Ar 5.62577 2.52888 -1.38672
Ar 1.90095 5.34224 -0.262466
Ar -2.06734 -0.163776 -0.500983
Ar -3.95041 3.32462 1.07397
Ar -1.44639 6.13829 0.55563
Ar -0.813749 -3.98634 1.60152
Ar -5.82792 0.240241 0.741853
Ar -4.39612 -3.28086 0.039774
Ar 1.33711 -1.82864 -0.705598
Ar 7.16742 -0.852637 -1.21169
Ar -2.66198 -6.75756 -0.833021
Ar 0.467351 -0.616312 2.51183
Ar 3.07764 2.74213 2.73887
Ar -2.76064 1.64249 4.42138
Ar -0.416197 2.80902 1.86309
Ar 1.54203 -5.79708 -0.816958
Ar 0.798684 5.82214 3.40474
Ar -3.0036 5.26882 4.14231
Ar -3.37688 -1.48835 2.95906
Ar 3.01951 -3.48666 2.72111
Ar -0.420754 -0.0634765 -3.50821
Ar 3.82123 -0.175364 -3.50505
Ar -4.15366 -0.763844 -3.4786
Ar -1.56783 3.26977 -1.9408
Ar 2.33924 -3.43985 -3.95297
Ar 2.37078 3.32631 -4.27547
Ar -5.12366 2.48077 -2.42555
Ar -1.50091 -3.54615 -2.22716
Ar 4.22491 -0.267226 1.1886
Ar 3.07768 -0.401272 5.11882
Ar 0.888815 2.47005 6.0331
Ar 0.249329 -3.07227 5.27201
Ar -2.98648 -5.10023 4.51519
Ar 1.19777 -0.578159 -6.62012
Ar -1.25255 2.67884 -5.42939
Ar -1.92665 -2.51684 -5.83181
Ar 4.61542 -3.7148 -1.00222
38
Atoms. Timestep: 60000
Ar 1.74104 1.85376 -0.601898
Ar 5.19999 2.44545 -1.20361
Ar 1.44783 5.55831 0.262582
Ar -1.31757 -0.315476 -0.0573003
Ar -4.18622 1.94519 1.16348
Ar -2.92463 5.63236 0.665889
Ar -0.880251 -3.22639 2.22959
Ar -6.85314 -0.362602 -0.952768
Ar -4.6313 -3.4601 -2.4486
Ar 1.83888 -1.94448 -0.401512
Ar 7.49337 -0.704646 -2.27773
Ar -3.14123 -5.85197 1.08685
Ar 1.57148 0.0562776 2.48023
Ar 3.5835 3.14795 2.39815
Ar -1.84292 0.268123 3.91439
Ar -0.458769 2.86349 1.95735
Ar 1.14517 -6.05171 -0.190213
Ar 1.02944 5.36371 4.06618
Ar -2.78983 4.03371 4.41271
Ar -4.30148 -1.8461 1.5649
Ar 2.74373 -3.43162 3.27384
Ar 0.0404603 -0.263279 -3.46584
Ar 3.88888 -0.272211 -3.35303
Ar -3.48224 0.179414 -3.29341
Ar -1.76423 3.13732 -1.66787
Ar 1.69215 -3.56276 -3.82404
Ar 1.08518 3.88219 -3.53782
Ar -5.24673 3.2167 -3.22732
Ar -1.19613 -3.75942 -1.60285
Ar 5.18358 -0.868879 0.888711
Ar 4.49706 -0.21636 4.61964
Ar 1.39654 2.03896 5.57948
Ar 0.227079 -2.32463 5.72586
Ar -3.73883 -2.81018 5.51927
Ar 1.46659 -0.313139 -6.65469
Ar -1.63435 2.53528 -5.70939
Ar -1.81594 -2.86622 -5.37504
Ar 4.93585 -3.70501 -1.96416
38
Atoms. Timestep: 70000
Ar 2.1383 1.43165 -0.541045
Ar 5.62957 2.42273 -1.81877
Ar 1.55767 5.03844 -0.749392
Ar -1.2186 -0.309937 0.236373
Ar -3.93315 1.95677 1.08743
Ar -2.90687 5.73705 0.469079
Ar -0.314116 -3.28455 2.22451
Ar -6.73084 0.137518 -0.716746
Ar -5.33552 -3.24335 -2.06215
Ar 2.07367 -2.18356 -0.427679
Ar 7.2344 -1.21175 -2.23005
Ar -3.09048 -5.74966 0.494812
Ar 1.39495 -0.102798 2.83534
Ar 3.40727 3.01294 2.19516
Ar -2.15762 -0.566724 3.91841
Ar -0.598369 2.83441 2.01998
Ar 1.22318 -5.61131 -0.901862
Ar 0.644466 5.87689 3.33689
Ar -3.66464 4.50932 4.13379
Ar -4.21429 -2.11167 1.18492
Ar 3.67103 -2.9276 3.7483
Ar 0.209247 0.0524603 -3.29563
Ar 3.80462 -0.469736 -3.68393
Ar -3.32832 -0.0758155 -2.6786
Ar -1.36503 2.96257 -1.7493
Ar 1.63604 -3.43787 -4.14884
Ar 2.14479 3.21493 -3.7217
Ar -4.88007 3.72788 -1.98402
Ar -1.55946 -3.31138 -1.5753
Ar 5.08598 -0.16144 1.08845
Ar 4.04856 0.20874 5.79031
Ar 0.25876 2.23143 5.65142
Ar 0.776113 -1.97432 6.33335
Ar -3.29924 -4.43061 4.45732
Ar 1.18436 -0.239505 -6.91266
Ar -2.56078 2.45521 -5.44011
Ar -1.87753 -2.29449 -5.15024
Ar 4.91393 -4.11187 -1.41784
38
Atoms. Timestep: 80000
Ar 1.88235 1.43262 -0.589748
Ar 5.09521 3.7714 -0.573496
Ar 1.58598 5.33959 -0.892664
Ar -1.50287 0.0191444 0.131342
Ar -4.23952 2.28326 1.01604
Ar -2.02894 6.11252 1.06156
Ar -0.834567 -2.99301 2.07479
Ar -6.94117 -0.103551 -1.00467
Ar -5.3231 -3.54086 -1.96866
Ar 1.78953 -2.42544 -0.750857
Ar 7.88978 0.828707 -2.35442
Ar -3.30225 -5.43634 1.13814
Ar 1.51043 -0.553767 2.38388
Ar 3.26602 2.59705 2.61475
Ar -2.11905 0.374888 3.68024
Ar -0.472253 3.00687 1.54803
Ar 1.97002 -6.29786 -0.855886
Ar 1.10019 5.22465 4.53801
Ar -2.35635 3.97318 4.81945
Ar -4.68164 -1.70138 1.59334
Ar 3.54126 -3.6374 2.70207
Ar -0.21166 -0.727138 -3.19417
Ar 4.06794 -0.180849 -3.00972
Ar -3.92134 -0.106053 -2.97582
Ar -1.52342 3.48765 -2.08326
Ar 0.569676 -3.93917 -4.49002
Ar 1.816 3.36846 -4.1221
Ar -5.40037 3.62149 -3.36985
Ar -1.61692 -3.47246 -1.26869
Ar 4.91831 -0.569406 0.995904
Ar 4.35753 -0.10863 4.92049
Ar 1.07882 1.61447 5.71183
Ar 0.526206 -2.16075 5.89957
Ar -3.57076 -3.14022 4.75098
Ar 2.84928 -0.943481 -6.36153
Ar -1.67976 1.91829 -5.39634
Ar -3.16012 -3.24148 -5.32409
Ar 5.07351 -3.69399 -0.994427
38
Atoms. Timestep: 90000
Ar 1.9198 1.92507 -0.702243
Ar 4.89503 3.85713 -2.18565
Ar 1.11399 5.66696 -0.179376
Ar -1.37241 0.174732 0.263996
Ar -4.31924 2.20945 1.29342
Ar -2.70394 5.71378 0.636667
Ar -0.679995 -3.03205 1.98694
Ar -7.32708 0.400465 -0.634677
Ar -5.19068 -4.06319 -1.83974
Ar 1.89232 -1.64078 -0.50785
Ar 6.52707 -3.21422 1.56572
Ar -2.81738 -5.52741 0.572528
Ar 1.62721 0.0118679 2.56332
Ar 3.80908 2.94653 2.32267
Ar -1.99555 0.119345 3.76473
Ar -0.555315 3.1486 1.78781
Ar 1.23688 -5.45312 -0.719309
Ar 1.5734 5.30545 4.37746
Ar -2.71937 3.64482 4.94576
Ar -4.33029 -1.96544 0.960406
Ar 2.93601 -3.78222 2.76245
Ar 0.0250031 -0.126662 -3.24695
Ar 3.83863 -0.124909 -3.37121
Ar -3.68391 0.296411 -2.52146
Ar -1.27219 3.09922 -1.96035
Ar 1.51558 -3.65212 -3.75527
Ar 1.68659 2.78488 -5.13463
Ar -5.35288 3.90054 -1.83038
Ar -1.41354 -3.00289 -1.69961
Ar 5.30609 0.358843 0.143116
Ar 5.00486 -0.676862 4.73812
Ar 0.600926 2.10467 5.49631
Ar 0.569099 -2.21284 5.20957
Ar -3.10257 -3.40241 4.74319
Ar 1.72771 -1.13584 -6.5431
Ar -2.06479 1.63522 -5.81078
Ar -1.89978 -2.86666 -5.2378
Ar 4.99763 -3.42338 -2.25377
38
Atoms. Timestep: 100000
Ar 2.08498 1.56665 -0.993331
Ar 4.97978 3.40502 -1.92617
Ar 1.5375 5.18337 -0.618164
Ar -1.29494 -0.125026 0.0622504
Ar -4.3294 1.38047 1.60854
Ar -2.44004 5.72863 1.31113
Ar -0.595692 -3.44203 1.63886
Ar -7.40061 0.511107 -1.72083
Ar -5.79409 -2.55414 -2.81756
Ar 1.78897 -2.14614 -1.14874
Ar 6.63492 -2.46314 2.94114
Ar -3.09902 -5.92465 0.577597
Ar 1.5155 -0.2763 2.39027
Ar 3.81892 2.89727 1.90083
Ar -1.85603 -0.163353 3.95533
Ar 0.0911877 2.95519 1.77061
Ar 0.902559 -5.68744 -1.04516
Ar 1.74668 6.17397 2.94241
Ar -2.41415 3.49746 4.63071
Ar -4.15948 -2.2996 1.20834
Ar 3.13664 -3.45872 2.14157
Ar -0.261971 0.145007 -3.62726
Ar 3.76557 -0.0683284 -3.86818
Ar -3.70288 0.526154 -2.51273
Ar -1.43125 3.33149 -1.59482
Ar 4.00517 -3.8586 -3.71027
Ar 1.49026 4.3828 -4.06782
Ar -5.30502 3.53815 -1.30592
Ar -2.27578 -2.97589 -1.90468
Ar 4.78621 -0.312771 0.500231
Ar 4.62498 0.239595 4.59174
Ar 1.52671 2.67701 5.07139
Ar 0.570394 -2.72524 5.1445
Ar -2.99434 -3.84379 4.2931
Ar 0.446525 -3.44197 -4.54687
Ar -3.51541 2.84933 -5.21616
Ar -2.99339 -1.60917 -5.43912
Ar 6.41204 -3.61135 -0.61675
38
Atoms. Timestep: 110000
Ar 2.39175 1.67341 -0.602289
Ar 5.06261 3.79994 -2.36209
Ar 1.75746 5.34473 -0.765405
Ar -0.994185 0.0129937 0.331431
Ar -3.70413 2.35335 0.578448
Ar -1.88932 5.91746 0.634195
Ar -0.225606 -3.24045 2.3292
Ar -6.7512 0.254904 -0.521597
Ar -4.97369 -3.82801 -2.28404
Ar 2.2323 -2.32414 -0.429044
Ar 6.78973 -3.60482 1.28598
Ar -2.76223 -5.56761 1.08649
Ar 1.97423 -0.0759213 2.71793
Ar 3.50896 3.50997 2.71145
Ar -2.02512 0.371711 3.82634
Ar -0.116539 3.26698 2.04388
Ar 0.976982 -5.62013 -0.521497
Ar -0.0849673 6.2455 4.2546
Ar -3.60304 4.43827 3.70431
Ar -3.90729 -1.65022 1.17002
Ar 3.30799 -3.71209 2.57983
Ar 0.306906 -0.270385 -3.25272
Ar 4.37791 -0.489693 -3.21132
Ar -3.52096 -0.0738681 -2.21258
Ar -1.02699 2.83964 -1.87118
Ar 1.79254 -3.91676 -3.91265
Ar 1.78059 2.91281 -3.88789
Ar -4.80254 3.57852 -2.7284
Ar -1.51943 -3.11896 -1.53485
Ar 5.4159 -0.0375241 0.417629
Ar 5.08057 -0.407462 4.35486
Ar 0.722146 2.18788 5.71064
Ar 0.174437 -1.88316 5.75571
Ar -3.19975 -3.09433 4.41706
Ar -0.654544 -0.129132 -6.91675
Ar -3.81969 1.24437 -5.66464
Ar -2.8898 -2.59038 -5.3035
Ar 4.82002 -4.31641 -1.92753
38
Atoms. Timestep: 120000
Ar 2.20027 0.932072 -0.946473
Ar 5.5925 1.94946 -2.08049
Ar 1.10174 5.07194 -0.725572
Ar -1.60811 -0.571672 0.355954
Ar -4.15247 2.13224 0.946294
Ar -2.36773 5.30875 0.456209
Ar 0.0890979 -3.77176 1.42566
Ar -7.24156 0.961783 -1.04477
Ar -7.37344 -3.39566 -0.346108
Ar 2.37533 -2.71941 -1.10764
Ar 6.87178 -3.08551 3.52863
Ar -3.66228 -5.39843 1.0195
Ar 1.40714 -0.438896 2.62558
Ar 3.69625 3.11194 1.83039
Ar -2.45839 1.01295 3.78465
Ar -0.136067 2.68414 1.58745
Ar 4.97568 -3.99815 -4.07587
Ar 1.05696 5.96735 3.10322
Ar -2.23198 4.59429 4.83897
Ar -4.72867 -1.91138 1.89023
Ar 2.98872 -3.68702 3.78063
Ar -0.462351 -0.642006 -3.3094
Ar 3.28174 -0.322155 -4.08435
Ar -3.96806 -0.359491 -2.27551
Ar -1.63217 2.50956 -1.84145
Ar 0.89537 -3.23895 -5.41734
Ar 1.7871 2.84414 -3.75106
Ar -4.82129 4.44777 -2.44734
Ar -1.51799 -3.76401 -2.00328
Ar 5.00008 -0.321008 1.41322
Ar 4.17532 -0.302128 4.78328
Ar 1.1709 2.50697 5.18824
Ar 0.86658 -1.38555 6.07472
Ar -1.94901 -3.04483 4.32335
Ar 0.721157 0.414591 -6.63751
Ar -2.67087 1.79551 -5.35647
Ar -2.96028 -2.15797 -5.48461
Ar 5.69098 -3.72845 -0.0209344
38
Atoms. Timestep: 130000
Ar 1.18458 0.739332 -1.18977
Ar 5.21443 0.258772 -0.831052
Ar 1.16063 4.86456 -0.631744
Ar -1.38695 -1.35672 0.857414
Ar -4.00775 1.71922 1.2221
Ar -2.21528 5.33641 -0.0919395
Ar 2.8704 -5.30353 2.4287
Ar -7.11849 -0.443248 0.00251076
Ar -3.7849 -2.86386 -1.10467
Ar -0.0980651 -2.37511 -2.3117
Ar 5.03264 -1.28092 2.51755
Ar -0.549945 -5.1758 0.346212
Ar 1.10596 -0.352669 3.26574
Ar 3.2854 2.27433 1.91233
Ar -1.92725 0.619351 4.76663
Ar -0.393079 2.48729 1.47065
Ar 2.26948 -4.82231 -3.19636
Ar 0.736637 6.49171 3.01638
Ar -2.97707 4.05264 3.77425
Ar -4.64233 -1.4436 3.00929
Ar 3.18647 -3.05619 5.18968
Ar 0.248743 0.665271 -4.90432
Ar 3.44291 -1.47157 -3.36537
Ar -2.43396 0.990264 -1.90621
Ar -1.20639 4.04099 -3.54424
Ar 0.93445 -2.90987 -6.12981
Ar 3.21031 2.61336 -4.02281
Ar -5.27749 3.67566 -2.09513
Ar -2.79915 -1.46015 -4.61961
Ar 2.21747 -2.43675 0.28693
Ar 4.07081 0.341571 5.87215
Ar 0.820219 3.05845 5.15235
Ar 0.661032 -0.906783 6.78705
Ar -0.654729 -3.32254 4.0456
Ar 3.69302 -0.303366 -6.66817
Ar -3.62214 1.93028 -5.28772
Ar -5.94767 -0.618473 -3.33336
Ar 5.69905 -4.255 -0.689514
38
Atoms. Timestep: 140000
Ar 1.18121 1.28873 -1.74057
Ar 4.86903 1.29927 -0.571648
Ar 1.96657 5.10631 -0.88452
Ar -0.964558 -0.941306 0.483418
Ar -4.03836 0.823245 1.38446
Ar -0.7296 6.34176 1.45888
Ar 2.87368 -5.82209 1.3075
Ar -6.24796 -2.25261 1.60572
Ar -3.56702 -3.0333 -0.855864
Ar -0.571381 -2.75023 -2.90703
Ar 5.24963 -1.13739 2.41905
Ar -0.529876 -4.60143 0.417108
Ar 2.09945 0.614846 1.98484
Ar 5.23063 1.99354 4.60268
Ar -1.2636 0.150373 3.71918
Ar -0.79431 2.63251 0.904401
Ar 2.90253 -5.14115 -2.65799
Ar 2.84508 4.17976 2.43003
Ar -3.42938 4.05468 3.42695
Ar -3.10678 -3.04539 3.04965
Ar -1.19379 -2.44118 6.46941
Ar -0.253075 0.0257324 -5.10717
Ar 2.76536 -1.56596 -3.76388
Ar -2.72007 0.638376 -2.10104
Ar -0.703125 3.64572 -3.67366
Ar 0.285437 -3.49497 -6.79913
Ar 3.97639 2.09318 -4.72794
Ar -3.59426 4.52168 -0.74574
Ar -4.14715 -1.9837 -4.37454
Ar 2.27546 -2.27863 -0.185281
Ar 1.9609 0.172984 5.80775
Ar 0.0200145 3.09305 4.9304
Ar -2.4487 1.38213 7.10251
Ar 1.36823 -2.77445 3.34359
Ar 3.06363 -0.499568 -7.30032
Ar -4.03918 1.97258 -5.49156
Ar -6.28024 -0.195832 -1.58602
Ar 5.69118 -2.07028 -1.37362
38
Atoms. Timestep: 150000
Ar 0.532194 0.368637 -2.0331
Ar 5.51651 0.671297 0.441463
Ar 2.35729 3.32895 -1.04047
Ar -1.31154 -1.36487 0.998141
Ar -4.41288 0.529961 2.24015
Ar -1.58241 6.12729 -0.292423
Ar 2.73513 -5.67701 1.36576
Ar -6.83663 -2.27606 2.48254
Ar -3.94127 -2.96114 -0.701991
Ar -0.825573 -2.92462 -2.95282
Ar 3.99252 -1.99315 2.90949
Ar -0.83571 -5.10697 0.265844
Ar 1.81784 0.773523 1.93326
Ar 6.44746 1.41055 3.91757
Ar -1.30769 1.49467 4.0927
Ar -1.42673 2.48525 0.322203
Ar 2.94085 -4.19377 -2.97457
Ar 4.69418 4.1353 1.73077
Ar -3.64373 4.07709 2.93767
Ar -3.61362 -4.38927 2.72415
Ar -2.97711 -1.76934 4.8878
Ar -1.26523 0.191285 -5.09275
Ar 4.19738 -0.296204 -2.7446
Ar -3.22776 0.448491 -1.86201
Ar -0.835717 3.77732 -2.98754
Ar 1.95173 -1.62047 -5.37974
Ar 2.51931 2.28341 -4.89425
Ar -4.96066 3.35569 -0.49509
Ar -4.26988 -1.72574 -4.59444
Ar 1.7684 -2.54717 -0.10183
Ar 2.82642 2.6157 4.83554
Ar 0.578278 4.67759 2.50922
Ar 2.0617 -0.691522 5.83657
Ar 0.0123808 -3.59825 3.59907
Ar 6.09386 0.855656 -6.11246
Ar -4.71805 2.58151 -4.24951
Ar -6.66701 -0.151276 -0.744549
Ar 5.61778 -2.90133 -0.775756
38
Atoms. Timestep: 160000
Ar 0.708139 0.411044 -1.80841
Ar 6.00273 1.54032 1.02913
Ar 2.31114 4.18167 -1.04883
Ar -1.1423 -0.99294 1.2436
Ar -4.22664 1.29067 1.64728
Ar -1.73203 6.23018 -0.716762
Ar 4.52065 -5.77877 0.186832
Ar -7.57614 -0.426185 1.97152
Ar -4.39325 -2.4551 -0.00173693
Ar -1.08397 -2.58649 -2.17541
Ar 6.14178 -2.03671 1.16794
Ar -0.559514 -4.58385 0.731443
Ar 2.1489 1.33279 1.45981
Ar 4.25451 -1.38602 4.76652
Ar -0.997 1.77391 3.95397
Ar -0.989166 2.65699 0.525685
Ar 1.70922 -5.18965 -2.07352
Ar 3.90571 4.30899 2.48403
Ar -3.32997 4.44533 2.83216
Ar -0.873098 -5.28025 4.15317
Ar -3.64318 -1.68788 3.70573
Ar -1.29163 -0.172922 -5.01655
Ar 4.22879 0.33162 -1.97748
Ar -3.09585 0.529944 -1.63465
Ar -1.41278 3.38145 -3.03107
Ar 2.03187 -1.93459 -4.29015
Ar 1.70555 2.16758 -4.85185
Ar -4.63372 3.88223 -1.12614
Ar -4.38433 -2.13947 -4.04933
Ar 2.48421 -2.26446 -0.0125961
Ar 2.38405 1.60833 5.22731
Ar 0.284126 5.26189 2.54592
Ar -0.107398 -1.53884 5.05849
Ar 2.42604 -4.30978 3.34481
Ar 4.80184 -0.161619 -5.6694
Ar -4.76271 2.19873 -4.48948
Ar -6.97992 0.471114 -1.57679
Ar 5.16736 -3.07826 -2.4852
38
Atoms. Timestep: 170000
Ar 0.525497 1.25633 -2.5275
Ar 5.21363 0.245624 1.51679
Ar 1.95519 4.71622 -1.41246
Ar -0.399233 -1.06003 0.882148
Ar -3.36406 0.427273 3.12057
Ar -1.29015 6.61523 -0.0632963
Ar 4.43251 -6.96716 5.67688
Ar -7.00582 -4.92587 -0.497806
Ar -3.17791 -3.08854 0.445424
Ar -0.99914 -2.32209 -2.90267
Ar 4.67164 -3.74791 0.334141
Ar -0.0172316 -4.78893 0.0877734
Ar 2.18741 1.88123 0.775063
Ar 2.63356 -2.33194 3.05663
Ar 0.0802228 0.808079 4.08352
Ar -1.29331 2.85928 0.617011
Ar 2.25141 -4.19381 -3.41643
Ar 5.12883 4.02113 0.953329
Ar -2.71669 5.09912 2.90053
Ar -3.40057 -1.51584 5.94402
Ar -5.93492 -2.94071 3.22991
Ar -2.19036 0.949334 -4.96251
Ar 4.4293 2.27011 -2.17104
Ar -2.86587 0.392557 -1.36552
Ar -1.43393 4.34076 -3.15791
Ar 0.884455 -1.13293 -6.06672
Ar 2.38582 3.57631 -5.01783
Ar -4.80279 3.29314 0.339951
Ar -5.40688 -2.35021 -3.04139
Ar 2.80499 -1.22315 -1.39862
Ar 3.61517 2.48818 4.47584
Ar 1.26811 4.94947 2.69139
Ar -1.1041 -3.06187 3.67145
Ar 2.65452 -6.00133 2.67739
Ar 4.44298 -0.963701 -4.58648
Ar -5.06635 2.85675 -3.55366
Ar -6.02977 -0.0934363 0.169032
Ar 6.93584 -0.335632 -1.50694
38
Atoms. Timestep: 180000
Ar 0.381495 1.34203 -1.54626
Ar 6.64004 0.527103 1.3974
Ar 1.38041 4.80877 -0.774784
Ar 0.105567 -0.964076 1.27462
Ar -2.45255 0.214846 3.33764
Ar -1.43503 6.88417 0.394112
Ar 0.386501 -2.13194 4.85168
Ar -6.34955 -2.62221 -1.16342
Ar -2.97255 -4.18342 -0.71383
Ar -0.577656 -1.95489 -2.79731
Ar 6.15307 -3.49127 -0.0702217
Ar 1.33219 -4.31894 0.144651
Ar 2.95045 1.33027 1.345
Ar 3.33937 -2.61659 2.60429
Ar 1.17953 1.71161 4.48739
Ar -0.536496 2.75725 1.57189
Ar 2.88893 -3.62699 -3.84098
Ar 5.39172 3.87797 0.55705
Ar -1.78923 5.18452 3.95266
Ar -3.77768 -2.11225 6.02133
Ar -5.47546 -1.62477 2.01861
Ar -2.16541 0.841661 -4.20096
Ar 4.04403 2.43651 -2.15655
Ar -2.91115 -0.29112 -0.488869
Ar -2.22654 4.52337 -2.46332
Ar -0.679575 -2.24115 -6.33815
Ar 1.15613 3.68307 -4.48921
Ar -4.12856 3.34861 0.59423
Ar -3.10633 -4.58335 -4.52017
Ar 2.96409 -1.39171 -1.25941
Ar 4.57416 0.128676 5.29346
Ar 2.53301 4.88957 2.82861
Ar -2.61606 -3.7796 2.9406
Ar 0.694802 -6.17922 3.48329
Ar 2.1759 -0.000353558 -4.59328
Ar -5.73949 -0.00399793 -3.97883
Ar -7.16094 0.910918 -0.550999
Ar 5.83084 -1.28209 -3.15197
38
Atoms. Timestep: 190000
Ar 0.384683 1.12782 -1.40619
Ar 5.77537 0.118442 0.544727
Ar -0.953366 5.63915 -1.65661
Ar -0.247109 -2.16022 0.867172
Ar -1.41685 0.896097 2.00579
Ar -0.237839 7.21242 2.29493
Ar 0.487933 -1.48862 4.54331
Ar -6.32396 -2.23059 0.989755
Ar -2.85846 -4.5038 -0.586967
Ar -0.613763 -2.33653 -2.77469
Ar 5.66428 -3.20352 -2.79799
Ar 0.85142 -5.34616 -0.807073
Ar 2.43888 0.527637 1.6153
Ar 3.52574 -2.71751 2.60478
Ar 1.02234 2.18034 5.23106
Ar 0.471966 3.72534 1.36503
Ar 2.13435 -4.57671 -3.9315
Ar 4.8498 2.54123 3.94503
Ar -1.24837 5.32294 5.27993
Ar -2.74269 1.01297 5.34159
Ar -5.19066 1.38764 1.67553
Ar -2.77828 0.655147 -4.81021
Ar 3.27574 3.34407 -1.08468
Ar -3.27403 -0.81783 -0.939023
Ar -3.15989 2.68931 -1.11859
Ar 0.491408 -3.26599 -7.16257
Ar 1.85485 3.68251 -4.38721
Ar -3.394 4.37045 2.52922
Ar -1.43791 -5.72791 -3.95002
Ar 2.81401 -2.28052 -0.920193
Ar 4.08445 -0.276364 5.89419
Ar 2.59741 5.74642 3.92756
Ar -3.18374 -2.07512 2.97846
Ar 0.25212 -5.13435 3.20237
Ar 0.693319 0.00802254 -5.54305
Ar -2.81345 -2.83434 -5.91374
Ar -5.3588 -1.69116 -3.58444
Ar 3.5651 0.480295 -3.461
38
Atoms. Timestep: 200000
Ar -0.52665 0.524987 -1.21572
Ar 4.96382 -0.382516 1.3137
Ar -1.62075 6.4707 -0.132835
Ar -0.76052 -2.85827 0.718733
Ar -1.92937 0.686707 2.21416
Ar 2.31875 6.04006 -2.72341
Ar -0.547966 -1.82275 4.52505
Ar -5.41082 0.755934 3.02597
Ar -3.53419 -4.87713 -0.622616
Ar -1.27116 -2.60683 -3.04461
Ar 5.8331 -0.384809 -2.31098
Ar 1.33072 -5.41627 -1.99885
Ar 1.53588 -0.0690263 1.89373
Ar 2.83574 -4.0822 2.01903
Ar 0.684359 1.79922 4.94107
Ar 1.14489 3.32592 0.253183
Ar 5.5706 -3.9215 -0.340588
Ar 4.12831 3.14714 2.87913
Ar -1.69055 4.08573 6.63841
Ar -3.29649 0.593525 5.88802
Ar -3.8381 4.00057 3.63536
Ar -3.72663 0.0332721 -5.07732
Ar 5.11763 3.05835 -0.82825
Ar -3.9208 -0.782925 -0.648229
Ar -3.75345 2.93203 -0.184486
Ar 1.94475 -2.86002 -4.96257
Ar -1.04945 3.93848 -2.84174
Ar -0.564133 5.12053 3.06168
Ar -0.622169 -5.66041 -5.32808
Ar 2.6245 -1.903 -1.21591
Ar 3.10713 -1.15859 5.01689
Ar 2.64058 6.41937 1.4276
Ar -4.06203 -2.37293 2.68647
Ar 0.374319 -7.14357 1.32801
Ar 0.0723482 0.255837 -5.21479
Ar -1.99514 -2.79036 -7.2864
Ar -4.54167 -3.53469 -4.70657
Ar 2.4366 1.44042 -2.78224
38
Atoms. Timestep: 210000
Ar -0.770259 0.767882 -1.17952
Ar 5.12061 -0.154904 2.10015
Ar 0.381272 4.24983 -1.73475
Ar -0.372925 -2.56932 0.616228
Ar -2.35446 -0.035259 2.54751
Ar 3.71784 4.3489 -3.15711
Ar -0.0926542 -2.24589 4.46939
Ar -6.27668 -0.0174329 3.18976
Ar -2.44324 -5.39239 -0.388703
Ar -1.22658 -2.46893 -2.95035
Ar 4.86356 0.773048 -3.07436
Ar 1.35724 -5.10239 -1.48424
Ar 1.52335 0.116409 2.54442
Ar 3.34036 -3.52402 1.50096
Ar -0.410302 1.73488 5.26685
Ar 2.74405 2.09173 -0.19648
Ar 6.2237 -2.33504 -1.02476
Ar 3.4465 2.9134 3.77225
Ar -4.13873 3.34989 3.49206
Ar -3.71154 -0.0779399 6.02827
Ar -4.04557 1.53099 0.154905
Ar -2.66244 3.50721 -3.73347
Ar 5.83591 4.0328 0.625713
Ar -4.06138 -1.97425 -0.00744053
Ar -2.86171 4.88733 0.0461597
Ar 1.68716 -2.49943 -4.71104
Ar 0.569041 5.41693 -5.22423
Ar -0.279312 3.07926 1.79148
Ar -1.2413 -5.73437 -4.54463
Ar 2.35379 -1.35165 -1.33684
Ar 3.21689 -0.530537 5.79467
Ar 2.22118 5.52322 1.39366
Ar -3.17334 -3.85886 3.05282
Ar 0.176016 -5.85987 2.44681
Ar -1.58488 0.358364 -5.86571
Ar -3.92149 -0.214447 -3.05345
Ar -4.56717 -4.07124 -3.09461
Ar 1.4195 1.33712 -4.07237
38
Atoms. Timestep: 220000
Ar -1.02175 0.992403 0.201952
Ar 5.07639 -0.0431975 1.89775
Ar 0.967188 5.16908 -3.09867
Ar -0.591811 -2.75457 1.11693
Ar -2.29199 -0.427639 3.17082
Ar 4.08696 2.90873 -3.97656
Ar 0.245904 -2.7686 4.57476
Ar -6.18226 -1.05655 3.17701
Ar -2.59159 -4.83598 -1.43232
Ar -1.21782 -1.56116 -2.32158
Ar 5.49798 0.331006 -2.02658
Ar 1.31113 -4.14788 -1.89434
Ar 1.40518 0.193281 2.64805
Ar 3.02666 -3.05033 2.06297
Ar 0.166933 0.426293 6.10049
Ar 1.93846 3.12303 -0.0929839
Ar 4.88646 -3.1239 -2.14545
Ar 3.15733 3.63679 3.53855
Ar -4.25389 2.63031 4.64837
Ar -4.08496 -1.56668 6.45851
Ar -4.467 1.66027 0.706075
Ar -1.7775 3.32451 -4.86997
Ar 5.59951 3.68792 -0.356372
Ar -4.05589 -1.84412 0.165156
Ar -2.04989 4.26731 -1.38634
Ar 2.27978 -1.74154 -4.33121
Ar 1.31031 1.69697 -6.60776
Ar -0.903054 3.24291 2.92501
Ar -0.704 -3.84567 -5.36952
Ar 2.33723 -0.99811 -0.606243
Ar 4.21665 0.567534 5.61106
Ar 0.457841 6.39358 1.09931
Ar -2.91194 -4.32184 3.39508
Ar 0.646791 -6.21007 1.92481
Ar -1.86295 -0.125178 -5.6425
Ar -3.75042 1.08783 -2.80011
Ar -4.61347 -2.30472 -3.4584
Ar 0.719522 1.38899 -3.00573
38
Atoms. Timestep: 230000
Ar -1.19878 0.934361 0.0784107
Ar 4.93222 0.0606511 1.2275
Ar -1.59591 5.66029 -4.32188
Ar -0.480026 -2.55243 0.978051
Ar -2.26549 -1.56071 7.28499
Ar 2.88829 4.95383 -3.14873
Ar 0.488894 -2.5814 4.681
Ar -2.00745 -0.234503 3.38387
Ar -2.32325 -5.18533 -1.24253
Ar -1.39327 -1.70724 -2.55161
Ar 4.31521 1.42069 -2.60149
Ar 1.28555 -4.84967 -1.54206
Ar 1.54256 0.310018 2.6533
Ar 2.97863 -2.93287 1.7884
Ar 0.667525 1.01444 6.23377
Ar 1.86274 2.99936 -0.144885
Ar 4.96304 -2.62066 -1.38366
Ar 2.68387 3.52242 3.66056
Ar -3.11782 2.00985 6.30241
Ar -5.60881 -1.58596 3.55293
Ar -4.48926 1.91686 1.46815
Ar -0.462892 3.07171 -6.72623
Ar 5.54239 3.58491 0.170464
Ar -4.05961 -1.87391 -0.159309
Ar -2.35915 4.33901 -1.06486
Ar 1.85483 -2.32202 -4.21265
Ar 2.4865 1.21079 -5.99053
Ar -0.915591 3.4359 2.72796
Ar -0.837723 -4.33069 -5.27259
Ar 1.9575 -0.700673 -0.839354
Ar 3.99318 -1.11995 5.15863
Ar 0.698951 6.21896 0.252669
Ar -2.78917 -4.18153 3.52233
Ar -0.125257 -6.16214 2.19675
Ar -1.44132 -0.208716 -6.07918
Ar -3.40517 1.11603 -2.93381
Ar -4.69882 -2.79579 -3.82326
Ar 0.434871 1.72713 -3.28353
38
Atoms. Timestep: 240000
Ar -1.39201 0.827663 -0.111409
Ar 5.18503 0.427616 0.890036
Ar 0.173906 6.23749 -3.19224
Ar -0.0617631 -2.697 0.927282
Ar -2.62636 -1.15214 6.56124
Ar 4.16055 3.51002 -2.82966
Ar 0.461483 -2.49736 4.64432
Ar -1.89433 -0.38015 3.07206
Ar -1.86979 -5.28478 -0.787604
Ar -1.52457 -1.799 -2.69389
Ar 4.86892 -0.0931475 -3.39028
Ar 1.88531 -3.91802 -2.52604
Ar 1.70052 0.42479 2.40801
Ar 3.37626 -2.9258 2.30155
Ar 0.0649834 1.31336 5.6725
Ar 1.56024 3.39227 0.210874
Ar 5.04416 -2.69894 -1.00319
Ar 3.12022 2.996 4.49651
Ar -4.43116 1.80391 5.22566
Ar -5.24693 -1.55399 3.94537
Ar -4.62075 1.62801 1.23436
Ar -2.69325 2.65174 -5.5628
Ar 5.33945 4.47054 1.63077
Ar -4.09484 -1.87789 0.417459
Ar -2.93804 4.38368 -1.06056
Ar 1.62097 -0.943237 -4.61637
Ar 2.25147 1.79189 -7.14803
Ar -1.07891 3.1781 2.6537
Ar -1.40748 -4.87353 -4.68143
Ar 1.83097 -0.15528 -1.05791
Ar 3.79604 -0.772462 5.86535
Ar 3.15599 6.48074 -0.713761
Ar -2.57892 -4.68702 2.92097
Ar 1.02311 -6.14461 1.9537
Ar -3.03172 -1.01137 -6.01034
Ar -4.10296 1.2596 -2.74768
Ar -5.03482 -3.55294 -3.60704
Ar 0.0110303 2.24223 -3.2915
38
Atoms. Timestep: 250000
Ar -1.62339 0.968546 -0.00626543
Ar 4.58934 1.46185 0.659118
Ar 1.96114 4.0785 -4.93727
Ar -0.768755 -2.67772 0.990918
Ar -1.94068 -1.4958 7.26096
Ar 4.1985 4.39085 -1.42057
Ar 0.900304 -2.87675 4.54513
Ar -2.38568 -0.577571 3.58833
Ar -1.9444 -6.09013 -0.826772
Ar -1.99483 -1.86677 -2.52362
Ar 2.73285 -5.56939 -4.79234
Ar 1.31779 -3.95059 -1.80396
Ar 1.32579 0.262563 2.15072
Ar 3.24159 -2.49857 0.947696
Ar 0.583736 1.00403 5.65938
Ar 1.03909 3.52816 0.324394
Ar 4.46503 -2.53497 -3.38009
Ar 3.02238 3.49049 4.04947
Ar -3.65128 1.92929 6.20531
Ar -5.96294 -1.62172 3.86036
Ar -5.25489 1.52355 2.13232
Ar -0.637868 5.2685 -2.50687
Ar 2.84311 7.75785 -0.809434
Ar -4.29078 -1.54092 0.254164
Ar -2.75854 4.88 0.253843
Ar 1.11846 -1.53024 -4.85392
Ar 3.52949 1.04676 -3.80292
Ar -1.17885 3.05271 3.14941
Ar -0.7694 -5.09126 -4.89391
Ar 1.22471 -0.433225 -1.4341
Ar 4.06029 -0.671801 4.3725
Ar 1.53572 6.32011 2.58556
Ar -3.06507 -4.00947 3.31205
Ar 2.22281 -5.78129 2.03779
Ar -2.85573 -0.622679 -5.60439
Ar -4.40094 2.40253 -3.0156
Ar 0.0992433 -3.5178 -8.02073
Ar -0.525368 1.59338 -3.70666
38
Atoms. Timestep: 260000
Ar -1.36052 0.799687 0.574742
Ar 4.50218 0.972752 0.376122
Ar 2.08 5.47279 -3.03933
Ar -0.258492 -2.68819 1.28831
Ar -1.57685 -3.02784 6.9013
Ar 4.72476 4.77366 -0.187142
Ar 1.40496 -3.56771 4.43481
Ar -1.76728 -0.734251 4.04349
Ar -1.63616 -5.56456 -0.36835
Ar -1.62225 -1.77041 -1.89611
Ar 1.77008 -4.49511 -1.72796
Ar -0.255562 -7.52668 -3.32461
Ar 1.50719 0.167284 2.74259
Ar 3.22725 -2.57001 1.25925
Ar 0.722544 0.309598 6.48765
Ar 1.33121 3.16047 0.136494
Ar 5.10692 -1.7068 -2.19694
Ar 3.02447 3.54345 3.31184
Ar -4.76074 1.06764 2.51509
Ar -5.07952 -2.33803 4.42159
Ar -1.76067 4.92669 0.883685
Ar 1.971 1.45882 -6.60924
Ar -0.664386 4.12867 -6.38033
Ar -3.77805 -2.49698 0.874825
Ar -1.54814 5.5697 -2.70975
Ar 0.0430987 -1.32803 -5.11317
Ar 3.52283 2.0141 -2.95784
Ar -0.726908 2.83793 3.81259
Ar -2.23236 -4.61445 -4.33903
Ar 1.61909 -0.85101 -1.2378
Ar 4.4154 -1.07894 4.44704
Ar 1.33347 6.56268 1.40228