 DBCSR| CPU Multiplication driver                                           XSMM
 DBCSR| Multrec recursion limit                                              512
 DBCSR| Multiplication stack size                                           1000
 DBCSR| Maximum elements for images                                    UNLIMITED
 DBCSR| Multiplicative factor virtual images                                   1
 DBCSR| Use multiplication densification                                       T
 DBCSR| Multiplication size stacks                                             3
 DBCSR| Use memory pool for CPU allocation                                     F
 DBCSR| Number of 3D layers                                               SINGLE
 DBCSR| Use MPI memory allocation                                              F
 DBCSR| Use RMA algorithm                                                      F
 DBCSR| Use Communication thread                                               T
 DBCSR| Communication thread load                                             87
 DBCSR| MPI: My node id                                                        0
 DBCSR| MPI: Number of nodes                                                 256
 DBCSR| OMP: Current number of threads                                         1
 DBCSR| OMP: Max number of threads                                             1
 DBCSR| Split modifier for TAS multiplication algorithm                  1.0E+00


  **** **** ******  **  PROGRAM STARTED AT               2023-04-19 15:45:37.840
 ***** ** ***  *** **   PROGRAM STARTED ON                             nid001121
 **    ****   ******    PROGRAM STARTED BY                              dpassero
 ***** **    ** ** **   PROGRAM PROCESS ID                                 69545
  **** **  *******  **  PROGRAM STARTED IN /scratch/e1000/dpassero/MMM_2023/jbac
                                           hmann/grimme_d3/methane/mol

 CP2K| version string:                 CP2K version 2022.1 (Development Version)
 CP2K| source code revision number:                                  git:4ddb46c
 CP2K| cp2kflags: omp libint fftw3 libxc elpa parallel mpi3 scalapack xsmm max_c
 CP2K|            ontr=4 plumed2 spglib
 CP2K| is freely available from                            https://www.cp2k.org/
 CP2K| Program compiled at                      Wed 14 Sep 2022 12:18:41 PM CEST
 CP2K| Program compiled on                                             nid001080
 CP2K| Program compiled for                                 Eiger-gfortran_May22
 CP2K| Data directory path         /users/mmi/DEV/CP2K/trunk_new/eiger/cp2k/data
 CP2K| Input file name        /scratch/e1000/dpassero/MMM_2023/jbachmann/grimme_

 GLOBAL| Force Environment number                                              1
 GLOBAL| Basis set file name                                        BASIS_MOLOPT
 GLOBAL| Potential file name                                           POTENTIAL
 GLOBAL| MM Potential file name                                     MM_POTENTIAL
 GLOBAL| Coordinate file name                                    methane_mol.xyz
 GLOBAL| Method name                                                        CP2K
 GLOBAL| Project name                                                methane_mol
 GLOBAL| Run type                                                        GEO_OPT
 GLOBAL| FFT library                                                       FFTW3
 GLOBAL| Diagonalization library                                            ELPA
 GLOBAL| DGEMM library                                                      BLAS
 GLOBAL| Minimum number of eigenvectors for ELPA usage                        16
 GLOBAL| Orthonormality check for eigenvectors                          DISABLED
 GLOBAL| Matrix multiplication library                                 ScaLAPACK
 GLOBAL| All-to-all communication in single precision                          F
 GLOBAL| FFTs using library dependent lengths                                  T
 GLOBAL| Grid backend                                                       AUTO
 GLOBAL| Global print level                                                  LOW
 GLOBAL| MPI I/O enabled                                                       T
 GLOBAL| Total number of message passing processes                           256
 GLOBAL| Number of threads for this process                                    1
 GLOBAL| This output is from process                                           0
 GLOBAL| Stack size for threads created by OpenMP (OMP_STACKSIZE)           100M
 GLOBAL| CPU model name                          AMD EPYC 7742 64-Core Processor
 GLOBAL| CPUID                                                              1002

 MEMORY| system memory details [Kb]
 MEMORY|                        rank 0           min           max       average
 MEMORY| MemTotal            263506204     263506204     263506204     263506204
 MEMORY| MemFree             227564928     227496672     227564928     227530800
 MEMORY| Buffers                476960        448580        476960        462770
 MEMORY| Cached                7670704       7670704       7991232       7830968
 MEMORY| Slab                  8026268       7863532       8026268       7944900
 MEMORY| SReclaimable           694800        619696        694800        657248
 MEMORY| MemLikelyFree       236407392     236407392     236556180     236481786


 GENERATE|  Preliminary Number of Bonds generated:                             0
 GENERATE|  Achieved consistency in connectivity generation.

 *******************************************************************************
 *******************************************************************************
 **                                                                           **
 **     #####                         ##              ##                      **
 **    ##   ##            ##          ##              ##                      **
 **   ##     ##                       ##            ######                    **
 **   ##     ##  ##   ##  ##   #####  ##  ##   ####   ##    #####    #####    **
 **   ##     ##  ##   ##  ##  ##      ## ##   ##      ##   ##   ##  ##   ##   **
 **   ##  ## ##  ##   ##  ##  ##      ####     ###    ##   ######   ######    **
 **    ##  ###   ##   ##  ##  ##      ## ##      ##   ##   ##       ##        **
 **     #######   #####   ##   #####  ##  ##  ####    ##    #####   ##        **
 **           ##                                                    ##        **
 **                                                                           **
 **                                                ... make the atoms dance   **
 **                                                                           **
 **            Copyright (C) by CP2K developers group (2000-2022)             **
 **                      J. Chem. Phys. 152, 194103 (2020)                    **
 **                                                                           **
 *******************************************************************************


 TOTAL NUMBERS AND MAXIMUM NUMBERS

  Total number of            - Atomic kinds:                                   2
                             - Atoms:                                          5
                             - Shell sets:                                     5
                             - Shells:                                        17
                             - Primitive Cartesian functions:                 35
                             - Cartesian basis functions:                     34
                             - Spherical basis functions:                     33

  Maximum angular momentum of- Orbital basis functions:                        2
                             - Local part of the GTH pseudopotential:          2
                             - Non-local part of the GTH pseudopotential:      0


 SCF PARAMETERS         Density guess:                                   RESTART
                        --------------------------------------------------------
                        max_scf:                                              30
                        max_scf_history:                                       0
                        max_diis:                                              4
                        --------------------------------------------------------
                        eps_scf:                                        1.00E-06
                        eps_scf_history:                                0.00E+00
                        eps_diis:                                       1.00E-01
                        eps_eigval:                                     1.00E-05
                        --------------------------------------------------------
                        level_shift [a.u.]:                             0.000000
                        --------------------------------------------------------
                        Outer loop SCF in use 
                        No variables optimised in outer loop
                        eps_scf                                         1.00E-06
                        max_scf                                               20
                        No outer loop optimization
                        step_size                                       5.00E-01

 BFGS| Use rational function optimization for step estimation:                NO
 BFGS| Use model Hessian for initial guess:                                  YES
 BFGS| Restart Hessian:                                                       NO
 BFGS| Trust radius:                                                       0.100

 *******************************************************************************
 ***                     STARTING GEOMETRY OPTIMIZATION                      ***
 ***                                   BFGS                                  ***
 *******************************************************************************

 Number of electrons:                                                          8
 Number of occupied orbitals:                                                  4
 Number of molecular orbitals:                                                 4

 Number of orbital functions:                                                 33
 Number of independent orbital functions:                                     33

 Extrapolation method: initial_guess


 SCF WAVEFUNCTION OPTIMIZATION

  ----------------------------------- OT ---------------------------------------
  Minimizer      : DIIS                : direct inversion
                                         in the iterative subspace
                                         using   7 DIIS vectors
                                         safer DIIS on
  Preconditioner : FULL_KINETIC        : inversion of T + eS
  Precond_solver : DEFAULT
  stepsize       :    0.15000000                  energy_gap     :    0.20000000
  eps_taylor     :   0.10000E-15                  max_taylor     :             4
  ----------------------------------- OT ---------------------------------------

  Step     Update method      Time    Convergence         Total energy    Change
  ------------------------------------------------------------------------------
     1 OT DIIS     0.15E+00    0.3     0.00648780        -8.0751458389 -8.08E+00
     2 OT DIIS     0.15E+00    0.4     0.00345263        -8.0757662306 -6.20E-04
     3 OT DIIS     0.15E+00    0.4     0.00126037        -8.0760300990 -2.64E-04
     4 OT DIIS     0.15E+00    0.4     0.00030096        -8.0760717231 -4.16E-05
     5 OT DIIS     0.15E+00    0.4     0.00007383        -8.0760740277 -2.30E-06
     6 OT DIIS     0.15E+00    0.4     0.00003281        -8.0760741802 -1.53E-07
     7 OT DIIS     0.15E+00    0.4     0.00002083        -8.0760742020 -2.17E-08
     8 OT DIIS     0.15E+00    0.4     0.00000503        -8.0760742151 -1.32E-08
     9 OT DIIS     0.15E+00    0.4     0.00000196        -8.0760742155 -4.17E-10
    10 OT SD       0.15E+00    0.4     0.00000884        -8.0760742156 -3.19E-11
    11 OT DIIS     0.15E+00    0.4     0.00000553        -8.0760742151  4.49E-10
    12 OT DIIS     0.15E+00    0.4     0.00000047        -8.0760742156 -4.81E-10

  *** SCF run converged in    12 steps ***


  Electronic density on regular grids:         -7.9999999967        0.0000000033
  Core density on regular grids:                7.9999999999       -0.0000000001
  Total charge density on r-space grids:        0.0000000031
  Total charge density g-space grids:           0.0000000031

  Overlap energy of the core charge distribution:               0.00000126346778
  Self energy of the core charge distribution:                -18.97690376224277
  Core Hamiltonian energy:                                      6.20948495555399
  Hartree energy:                                               7.87553513810244
  Exchange-correlation energy:                                 -3.18412030803124
  Dispersion energy:                                           -0.00007150245420

  Total energy:                                                -8.07607421560400

  outer SCF iter =    1 RMS gradient =   0.47E-06 energy =         -8.0760742156
  outer SCF loop converged in   1 iterations or   12 steps


 ENERGY| Total FORCE_EVAL ( QS ) energy [a.u.]:               -8.076074215542183

 --------  Informations at step =     0 ------------
  Optimization Method        =                 BFGS
  Total Energy               =        -8.0760742155
  Used time                  =                5.457
 ---------------------------------------------------

 --------------------------
 OPTIMIZATION STEP:      1
 --------------------------

 Number of electrons:                                                          8
 Number of occupied orbitals:                                                  4
 Number of molecular orbitals:                                                 4

 Number of orbital functions:                                                 33
 Number of independent orbital functions:                                     33

 Extrapolation method: ASPC


 SCF WAVEFUNCTION OPTIMIZATION

  ----------------------------------- OT ---------------------------------------
  Minimizer      : DIIS                : direct inversion
                                         in the iterative subspace
                                         using   7 DIIS vectors
                                         safer DIIS on
  Preconditioner : FULL_KINETIC        : inversion of T + eS
  Precond_solver : DEFAULT
  stepsize       :    0.15000000                  energy_gap     :    0.20000000
  eps_taylor     :   0.10000E-15                  max_taylor     :             4
  ----------------------------------- OT ---------------------------------------

  Step     Update method      Time    Convergence         Total energy    Change
  ------------------------------------------------------------------------------
     1 OT DIIS     0.15E+00    0.2     0.00074301        -8.0761578104 -8.08E+00
     2 OT DIIS     0.15E+00    0.4     0.00037926        -8.0761658727 -8.06E-06
     3 OT DIIS     0.15E+00    0.4     0.00014057        -8.0761690021 -3.13E-06
     4 OT DIIS     0.15E+00    0.4     0.00006466        -8.0761695378 -5.36E-07
     5 OT DIIS     0.15E+00    0.4     0.00001826        -8.0761696807 -1.43E-07
     6 OT DIIS     0.15E+00    0.4     0.00000410        -8.0761696916 -1.09E-08
     7 OT DIIS     0.15E+00    0.4     0.00000041        -8.0761696921 -4.86E-10

  *** SCF run converged in     7 steps ***


  Electronic density on regular grids:         -7.9999999972        0.0000000028
  Core density on regular grids:                7.9999999999       -0.0000000001
  Total charge density on r-space grids:        0.0000000027
  Total charge density g-space grids:           0.0000000027

  Overlap energy of the core charge distribution:               0.00000111307191
  Self energy of the core charge distribution:                -18.97690376224277
  Core Hamiltonian energy:                                      6.19011907071043
  Hartree energy:                                               7.88840187878091
  Exchange-correlation energy:                                 -3.17771402506124
  Dispersion energy:                                           -0.00007396734644

  Total energy:                                                -8.07616969208720

  outer SCF iter =    1 RMS gradient =   0.41E-06 energy =         -8.0761696921
  outer SCF loop converged in   1 iterations or    7 steps


 ENERGY| Total FORCE_EVAL ( QS ) energy [a.u.]:               -8.076169692091195

 --------  Informations at step =     1 ------------
  Optimization Method        =                 BFGS
  Total Energy               =        -8.0761696921
  Real energy change         =        -0.0000954765
  Predicted change in energy =        -0.0000751726
  Scaling factor             =         0.0000000000
  Step size                  =         0.0053544798
  Trust radius               =         0.1000000000
  Decrease in energy         =                  YES
  Used time                  =                3.277

  Convergence check :
  Max. step size             =         0.0053544798
  Conv. limit for step size  =         0.0200000000
  Convergence in step size   =                  YES
  RMS step size              =         0.0045845542
  Conv. limit for RMS step   =         0.0200000000
  Convergence in RMS step    =                  YES
  Max. gradient              =         0.0006856620
  Conv. limit for gradients  =         0.0030000000
  Conv. in gradients         =                  YES
  RMS gradient               =         0.0006000505
  Conv. limit for RMS grad.  =         0.0010000000
  Conv. in RMS gradients     =                  YES
 ---------------------------------------------------
 Estimated peak process memory after this step [MiB]                         270

 *******************************************************************************
 ***                    GEOMETRY OPTIMIZATION COMPLETED                      ***
 *******************************************************************************

                    Reevaluating energy at the minimum

 Number of electrons:                                                          8
 Number of occupied orbitals:                                                  4
 Number of molecular orbitals:                                                 4

 Number of orbital functions:                                                 33
 Number of independent orbital functions:                                     33

 Extrapolation method: ASPC


 SCF WAVEFUNCTION OPTIMIZATION

  ----------------------------------- OT ---------------------------------------
  Minimizer      : DIIS                : direct inversion
                                         in the iterative subspace
                                         using   7 DIIS vectors
                                         safer DIIS on
  Preconditioner : FULL_KINETIC        : inversion of T + eS
  Precond_solver : DEFAULT
  stepsize       :    0.15000000                  energy_gap     :    0.20000000
  eps_taylor     :   0.10000E-15                  max_taylor     :             4
  ----------------------------------- OT ---------------------------------------

  Step     Update method      Time    Convergence         Total energy    Change
  ------------------------------------------------------------------------------
     1 OT DIIS     0.15E+00    0.2     0.00074281        -8.0761578085 -8.08E+00
     2 OT DIIS     0.15E+00    0.4     0.00037933        -8.0761658665 -8.06E-06
     3 OT DIIS     0.15E+00    0.4     0.00014086        -8.0761689988 -3.13E-06
     4 OT DIIS     0.15E+00    0.4     0.00006483        -8.0761695370 -5.38E-07
     5 OT DIIS     0.15E+00    0.4     0.00001829        -8.0761696806 -1.44E-07
     6 OT DIIS     0.15E+00    0.4     0.00000411        -8.0761696916 -1.10E-08
     7 OT DIIS     0.15E+00    0.4     0.00000041        -8.0761696921 -4.89E-10

  *** SCF run converged in     7 steps ***


  Electronic density on regular grids:         -7.9999999972        0.0000000028
  Core density on regular grids:                7.9999999999       -0.0000000001
  Total charge density on r-space grids:        0.0000000027
  Total charge density g-space grids:           0.0000000027

  Overlap energy of the core charge distribution:               0.00000111307191
  Self energy of the core charge distribution:                -18.97690376224277
  Core Hamiltonian energy:                                      6.19012042001118
  Hartree energy:                                               7.88840114310644
  Exchange-correlation energy:                                 -3.17771463868767
  Dispersion energy:                                           -0.00007396734644

  Total energy:                                                -8.07616969208735

  outer SCF iter =    1 RMS gradient =   0.41E-06 energy =         -8.0761696921
  outer SCF loop converged in   1 iterations or    7 steps


 ENERGY| Total FORCE_EVAL ( QS ) energy [a.u.]:               -8.076169692087355

 -------------------------------------------------------------------------------
 -                                                                             -
 -                                DBCSR STATISTICS                             -
 -                                                                             -
 -------------------------------------------------------------------------------
 COUNTER                                    TOTAL       BLAS       SMM       ACC
 flops     4 x     4 x     4                24960       0.0%    100.0%      0.0%
 flops     5 x    13 x     4                32240       0.0%    100.0%      0.0%
 flops    13 x     5 x     4                32240       0.0%    100.0%      0.0%
 flops    13 x    13 x     4                41912       0.0%    100.0%      0.0%
 flops     4 x     4 x    13                42016       0.0%    100.0%      0.0%
 flops    13 x     4 x     4                52832       0.0%    100.0%      0.0%
 flops     5 x     5 x     4                62000       0.0%    100.0%      0.0%
 flops     4 x     4 x     5                64640       0.0%    100.0%      0.0%
 flops     5 x     4 x     4                81280       0.0%    100.0%      0.0%
 flops    13 x     4 x    13               121680       0.0%    100.0%      0.0%
 flops    13 x     4 x     5               187200       0.0%    100.0%      0.0%
 flops     5 x     4 x    13               187200       0.0%    100.0%      0.0%
 flops     5 x     4 x     5               288000       0.0%    100.0%      0.0%
 flops inhomo. stacks                           0       0.0%      0.0%      0.0%
 flops total                         1.218200E+06       0.0%    100.0%      0.0%
 flops max/rank                    535.240000E+03       0.0%    100.0%      0.0%
 matmuls inhomo. stacks                         0       0.0%      0.0%      0.0%
 matmuls total                               4050       0.0%    100.0%      0.0%
 number of processed stacks                  4050       0.0%    100.0%      0.0%
 average stack size                                     0.0       1.0       0.0
 marketing flops                     1.323048E+06
 -------------------------------------------------------------------------------
 # multiplications                            547
 max memory usage/rank             284.393472E+06
 # max total images/rank                        1
 # max 3D layers                                1
 # MPI messages exchanged                 4200960
 MPI messages size (bytes):
  total size                        20.372880E+06
  min size                           0.000000E+00
  max size                           1.352000E+03
  average size                       4.849577E+00
 MPI breakdown and total messages size (bytes):
             size <=      128             4131135                   992640
       128 < size <=     8192               69825                 19380240
      8192 < size <=    32768                   0                        0
     32768 < size <=   131072                   0                        0
    131072 < size <=  4194304                   0                        0
   4194304 < size <= 16777216                   0                        0
  16777216 < size                               0                        0
 -------------------------------------------------------------------------------
 -                                                                             -
 -                      DBCSR MESSAGE PASSING PERFORMANCE                      -
 -                                                                             -
 -------------------------------------------------------------------------------
 ROUTINE             CALLS      AVE VOLUME [Bytes]
 MP_Bcast               14                     12.
 MP_Allreduce         2934                      8.
 MP_Alltoall          1893                  69460.
 MP_ISend            34996                     79.
 MP_IRecv            34996                     71.
 -------------------------------------------------------------------------------

 -------------------------------------------------------------------------------
 -                                                                             -
 -                                DBM STATISTICS                               -
 -                                                                             -
 -------------------------------------------------------------------------------
    M  x    N  x    K                                          COUNT     PERCENT
 -------------------------------------------------------------------------------

 -------------------------------------------------------------------------------
 -                                                                             -
 -                                GRID STATISTICS                              -
 -                                                                             -
 -------------------------------------------------------------------------------
 LP    KERNEL             BACKEND                              COUNT     PERCENT
 2     collocate general  REF                                  22014      30.99%
 2     integrate general  REF                                  19736      27.78%
 3     integrate general  REF                                   9526      13.41%
 3     collocate general  REF                                   8932      12.57%
 0     collocate general  REF                                   3840       5.41%
 1     integrate general  REF                                   2560       3.60%
 4     integrate general  REF                                   2358       3.32%
 4     collocate general  REF                                   1943       2.73%
 5     integrate general  REF                                    134       0.19%
 -------------------------------------------------------------------------------

 MEMORY| Estimated peak process memory [MiB]                                 272

 -------------------------------------------------------------------------------
 -                                                                             -
 -                         MESSAGE PASSING PERFORMANCE                         -
 -                                                                             -
 -------------------------------------------------------------------------------

 ROUTINE             CALLS      AVE VOLUME [Bytes]
 MP_Group                5
 MP_Bcast              204                1810682.
 MP_Allreduce          844                   3276.
 MP_Sync               465
 MP_Alltoall           965              204447169.
 MP_SendRecv          2040                     41.
 MP_ISendRecv        43605                   6789.
 MP_Wait             47073
 MP_comm_split           2
 MP_ISend            10720                  96785.
 MP_IRecv            10986                  94506.
 MP_Recv                23                    176.
 -------------------------------------------------------------------------------


 -------------------------------------------------------------------------------
 -                                                                             -
 -                           R E F E R E N C E S                               -
 -                                                                             -
 -------------------------------------------------------------------------------
 
 CP2K version 2022.1 (Development Version), the CP2K developers group (2022).
 CP2K is freely available from https://www.cp2k.org/ .

 Kuehne,Thomas D.; Iannuzzi,Marcella; Del Ben,Mauro;
 Rybkin,Vladimir V.; Seewald,Patrick; Stein,Frederick; Laino,Teodoro;
 Khaliullin,Rustam Z.; Schuett,Ole; Schiffmann,Florian; Golze,Dorothea;
 Wilhelm,Jan; Chulkov,Sergey; Bani-Hashemian,Mohammad Hossein;
 Weber,Valery; Borstnik,Urban; Taillefumier,Mathieu;
 Jakobovits,Alice Shoshana; Lazzaro,Alfio; Pabst,Hans; Mueller,Tiziano;
 Schade,Robert; Guidon,Manuel; Andermatt,Samuel; Holmberg,Nico;
 Schenter,Gregory K.; Hehn,Anna; Bussy,Augustin; Belleflamme,Fabian;
 Tabacchi,Gloria; Gloess,Andreas; Lass,Michael; Bethune,Iain;
 Mundy,Christopher J.; Plessl,Christian; Watkins,Matt;
 VandeVondele,Joost; Krack,Matthias; Hutter,Juerg. 
 The Journal of Chemical Physics, 152 (19), (2020). 
 CP2K: An electronic structure and molecular dynamics software package -
 Quickstep: Efficient and accurate electronic structure calculations.
 https://doi.org/10.1063/5.0007045

 Goerigk, Lars; Hansen, Andreas; Bauer, Christoph; Ehrlich, Stephan;
 Najibi, Asim; Grimme, Stefan. , 19 (48), (2017). 
 A look at the density functional theory zoo with the advanced GMTKN55 database
 for general main group thermochemistry, kinetics and noncovalent interactions.
 https://doi.org/10.1039/C7CP04913G

 Schuett, Ole; Messmer, Peter; Hutter, Juerg; VandeVondele, Joost. 
 Electronic Structure Calculations on Graphics Processing Units, John
 Wiley & Sons, Ltd, 173-190 (2016). 
 GPU-Accelerated Sparse Matrix-Matrix Multiplication for
 Linear Scaling Density Functional Theory.
 https://doi.org/10.1002/9781118670712.ch8

 Heinecke, A; Henry, G; Hutchinson, M; Pabst, H. 
 Proceedings of Intl. Supercomputing Conference, 981-991 (2016). 
 LIBXSMM: Accelerating Small Matrix Multiplications
 by Runtime Code Generation.
 https://doi.org/10.1109/SC.2016.83

 Borstnik, U; VandeVondele, J; Weber, V; Hutter, J. 
 PARALLEL COMPUTING, 40 (5-6), 47-58 (2014). 
 Sparse matrix multiplication: The distributed block-compressed sparse
 row library.
 https://doi.org/10.1016/j.parco.2014.03.012

 Hutter, J; Iannuzzi, M; Schiffmann, F; VandeVondele, J. 
 WIREs Comput Mol Sci., 4 (1), 15-25 (2014). 
 CP2K: atomistic simulations of condensed matter systems.
 https://doi.org/10.1002/wcms.1159

 Marek, A; Blum, V; Johanni, R; Havu, V; Lang, B; Auckenthaler, T;
 Heinecke, A; Bungartz, H; Lederer, H. 
 Journal of Physics: Condensed Matter, 26 (21), (2014). 
 The ELPA library: scalable parallel eigenvalue solutions for
 electronic structure
 theory and computational science.
 https://doi.org/10.1088/0953-8984/26/21/213201

 Grimme, S; Ehrlich, S; Goerigk, L. 
 JOURNAL OF COMPUTATIONAL CHEMISTRY, 32, 1456 (2011). 
 Effect of the damping function in dispersion corrected density functional theory.
 https://doi.org/10.1002/jcc.21759

 Grimme, S; Antony, J; Ehrlich, S; Krieg, H. 
 JOURNAL OF CHEMICAL PHYSICS, 132 (15), 154104 (2010). 
 A consistent and accurate ab initio parametrization of density
 functional dispersion correction (DFT-D) for the 94 elements H-Pu.
 https://doi.org/10.1063/1.3382344

 VandeVondele, J; Hutter, J. 
 JOURNAL OF CHEMICAL PHYSICS, 127 (11), 114105 (2007). 
 Gaussian basis sets for accurate calculations on molecular systems in
 gas and condensed phases.
 https://doi.org/10.1063/1.2770708

 Kuhne, TD; Krack, M; Mohamed, FR; Parrinello, M. 
 PHYSICAL REVIEW LETTERS, 98 (6), 066401 (2007). 
 Efficient and accurate Car-Parrinello-like approach to
 Born-Oppenheimer molecular dynamics.
 https://doi.org/10.1103/PhysRevLett.98.066401

 Krack, M. 
 THEORETICAL CHEMISTRY ACCOUNTS, 114 (1-3), 145-152 (2005). 
 Pseudopotentials for H to Kr optimized for gradient-corrected
 exchange-correlation functionals.
 https://doi.org/10.1007/s00214-005-0655-y

 VandeVondele, J; Krack, M; Mohamed, F; Parrinello, M; Chassaing, T;
 Hutter, J. COMPUTER PHYSICS COMMUNICATIONS, 167 (2), 103-128 (2005). 
 QUICKSTEP: Fast and accurate density functional calculations using a
 mixed Gaussian and plane waves approach.
 https://doi.org/10.1016/j.cpc.2004.12.014

 Frigo, M; Johnson, SG. 
 PROCEEDINGS OF THE IEEE, 93 (2), 216-231 (2005). 
 The design and implementation of FFTW3.
 https://doi.org/10.1109/JPROC.2004.840301

 Kolafa, J. 
 JOURNAL OF COMPUTATIONAL CHEMISTRY, 25 (3), 335-342 (2004). 
 Time-reversible always stable predictor-corrector method for
 molecular dynamics of polarizable molecules.
 https://doi.org/10.1002/jcc.10385

 VandeVondele, J; Hutter, J. 
 JOURNAL OF CHEMICAL PHYSICS, 118 (10), 4365-4369 (2003). 
 An efficient orbital transformation method for electronic structure
 calculations.
 https://doi.org/10.1063/1.1543154

 Hartwigsen, C; Goedecker, S; Hutter, J. 
 PHYSICAL REVIEW B, 58 (7), 3641-3662 (1998). 
 Relativistic separable dual-space Gaussian pseudopotentials from H to Rn.
 https://doi.org/10.1103/PhysRevB.58.3641

 Lippert, G; Hutter, J; Parrinello, M. 
 MOLECULAR PHYSICS, 92 (3), 477-487 (1997). 
 A hybrid Gaussian and plane wave density functional scheme.
 https://doi.org/10.1080/002689797170220

 Perdew, JP; Burke, K; Ernzerhof, M. 
 PHYSICAL REVIEW LETTERS, 77 (18), 3865-3868 (1996). 
 Generalized gradient approximation made simple.
 https://doi.org/10.1103/PhysRevLett.77.3865

 Goedecker, S; Teter, M; Hutter, J. 
 PHYSICAL REVIEW B, 54 (3), 1703-1710 (1996). 
 Separable dual-space Gaussian pseudopotentials.
 https://doi.org/10.1103/PhysRevB.54.1703


 -------------------------------------------------------------------------------
 -                                                                             -
 -                                T I M I N G                                  -
 -                                                                             -
 -------------------------------------------------------------------------------
 SUBROUTINE                       CALLS  ASD         SELF TIME        TOTAL TIME
                                MAXIMUM       AVERAGE  MAXIMUM  AVERAGE  MAXIMUM
 CP2K                                 1  1.0    0.011    0.030   12.223   12.224
 cp_geo_opt                           1  2.0    0.000    0.001   11.834   11.834
 geoopt_bfgs                          1  3.0    0.002    0.004   11.833   11.834
 cp_eval_at                           3  4.0    0.001    0.001   11.799   11.801
 qs_energies                          3  5.7    0.001    0.001   11.235   11.237
 scf_env_do_scf                       3  6.7    0.000    0.000   10.310   10.311
 scf_env_do_scf_inner_loop           26  7.7    0.002    0.003    9.625    9.629
 qs_forces                            2  5.0    0.001    0.002    8.720    8.721
 rs_pw_transfer                     290 13.1    0.005    0.006    6.175    6.309
 rebuild_ks_matrix                   28  9.5    0.000    0.001    6.107    6.109
 qs_ks_build_kohn_sham_matrix        28 10.5    0.006    0.007    6.107    6.108
 qs_ks_update_qs_env                 29  8.7    0.000    0.000    5.553    5.554
 qs_rho_update_rho_low               29  8.8    0.001    0.001    4.686    4.687
 calculate_rho_elec                  29  9.8    0.005    0.006    4.686    4.687
 sum_up_and_integrate                28 11.5    0.008    0.009    3.461    3.633
 integrate_v_rspace                  28 12.5    0.001    0.001    3.453    3.625
 density_rs2pw                       29 10.8    0.001    0.002    3.415    3.514
 potential_pw2rs                     28 13.5    0.001    0.002    3.432    3.442
 pw_transfer                        597 13.7    0.043    0.057    2.845    2.979
 fft_wrap_pw1pw2                    541 14.8    0.005    0.007    2.781    2.908
 fft_wrap_pw1pw2_150                313 16.2    0.151    0.165    2.438    2.552
 fft3d_pb                           313 17.2    0.570    0.625    2.089    2.205
 rs_pw_transfer_RS2PW_150            32 12.6    1.307    1.368    1.884    2.012
 qs_vxc_create                       28 11.5    0.001    0.001    1.966    1.984
 xc_vxc_pw_create                    28 12.5    0.011    0.018    1.965    1.983
 rs_pw_transfer_PW2RS_150            30 15.2    1.170    1.248    1.880    1.947
 mp_waitany                        2246 15.0    1.610    1.800    1.610    1.800
 xc_pw_derive                       168 14.5    0.001    0.001    1.552    1.653
 mp_alltoall_z22v                   854 19.0    1.305    1.582    1.305    1.582
 grid_collocate_task_list            29 10.8    1.249    1.366    1.249    1.366
 rs_pw_transfer_PW2RS_50             28 15.5    0.527    0.575    1.023    1.096
 xc_pw_divergence                    28 13.5    0.001    0.001    1.005    1.087
 xc_rho_set_and_dset_create          28 13.5    0.023    0.029    0.929    1.050
 rs_pw_transfer_RS2PW_50             29 12.8    0.569    0.622    0.893    0.907
 dbcsr_multiply_generic             547 13.8    0.013    0.014    0.710    0.736
 init_scf_loop                        3  7.7    0.001    0.001    0.679    0.680
 cube_transpose_4                   144 18.5    0.082    0.093    0.517    0.649
 cube_transpose_3                   169 18.1    0.065    0.082    0.527    0.643
 init_scf_run                         3  6.7    0.000    0.000    0.564    0.565
 scf_env_initial_rho_setup            3  7.7    0.000    0.001    0.564    0.565
 qs_ks_update_qs_env_forces           2  6.0    0.000    0.000    0.557    0.557
 qs_scf_new_mos                      26  8.7    0.000    0.000    0.534    0.536
 qs_scf_loop_do_ot                   26  9.7    0.000    0.000    0.534    0.536
 mp_waitall_1                    123595 16.9    0.398    0.519    0.398    0.519
 ot_scf_mini                         26 10.7    0.000    0.000    0.507    0.509
 cube_transpose_2                   260 17.3    0.044    0.051    0.259    0.448
 cube_transpose_1                   281 18.3    0.064    0.069    0.257    0.434
 rs_grid_zero                        61 16.0    0.373    0.391    0.373    0.391
 fft3d_ps                           228 16.1    0.025    0.045    0.321    0.378
 ot_mini                             26 11.7    0.001    0.001    0.365    0.366
 qs_energies_init_hamiltonians        3  6.7    0.000    0.001    0.351    0.353
 qs_env_update_s_mstruct              3  7.7    0.000    0.000    0.344    0.345
 wfi_extrapolate                      3  8.7    0.001    0.002    0.336    0.336
 qs_ot_get_derivative                26 12.7    0.000    0.001    0.327    0.329
 calculate_rho_core                   3  8.7    0.001    0.002    0.323    0.326
 mp_sum_l                          2961 13.4    0.238    0.274    0.238    0.274
 multiply_cannon                    547 14.8    0.055    0.069    0.248    0.267
 rs_pw_transfer_PW2RS_20             28 15.5    0.068    0.082    0.169    0.265
 qs_init_subsys                       1  2.0    0.001    0.001    0.245    0.247
 -------------------------------------------------------------------------------

 The number of warnings for this run is : 0
 
 -------------------------------------------------------------------------------
  **** **** ******  **  PROGRAM ENDED AT                 2023-04-19 15:45:51.607
 ***** ** ***  *** **   PROGRAM RAN ON                                 nid001121
 **    ****   ******    PROGRAM RAN BY                                  dpassero
 ***** **    ** ** **   PROGRAM PROCESS ID                                 69545
  **** **  *******  **  PROGRAM STOPPED IN /scratch/e1000/dpassero/MMM_2023/jbac
                                           hmann/grimme_d3/methane/mol
