       5
 i =        1, E =        -8.2183157602
  C        -0.0000765066        0.0000413546        0.0002014554
  H         0.6279234725        0.6279876526        0.6278738715
  H        -0.6279460754       -0.6280052665        0.6278932319
  H         0.6277898247       -0.6278542597       -0.6277311323
  H        -0.6278579850        0.6279209376       -0.6277960530
       5
 i =        2, E =        -8.2183157602
  C        -0.0000765066        0.0000413546        0.0002014554
  H         0.6279234725        0.6279876526        0.6278738715
  H        -0.6279460754       -0.6280052665        0.6278932319
  H         0.6277898247       -0.6278542597       -0.6277311323
  H        -0.6278579850        0.6279209376       -0.6277960530
       5
 i =        1, E =        -8.0761696921
  C         0.0001282193       -0.0000631106        0.0002334792
  H         0.6319514687        0.6319476684        0.6318397411
  H        -0.6319092369       -0.6319140918        0.6318033095
  H         0.6318565561       -0.6318586791       -0.6317322741
  H        -0.6317436971        0.6317487645       -0.6316252134
       5
 i =        2, E =        -8.0761696921
  C         0.0001282193       -0.0000631106        0.0002334792
  H         0.6319514687        0.6319476684        0.6318397411
  H        -0.6319092369       -0.6319140918        0.6318033095
  H         0.6318565561       -0.6318586791       -0.6317322741
  H        -0.6317436971        0.6317487645       -0.6316252134
