       6
 i =       0, E =      -24.8116049161
  C        -4.1470584852        0.9739370464       -0.2867909677
  H        -3.8714049094        2.0051534862       -0.2124517608
  H        -3.8550497944        0.3781556043        0.5526287126
  H        -3.9379799123        0.5290375227       -1.2373886905
 Cl        -6.1001463491        0.9977077001       -0.1944225775
 Cl        -1.4345957728        0.9410856529       -0.4144427329
       6
 i =       1, E =      -24.8133594838
  C        -4.1524992690        0.9739380820       -0.2867117779
  H        -3.8537178110        2.0272854269       -0.2114313994
  H        -3.8370207206        0.3650826984        0.5702216938
  H        -3.9216805703        0.5193719940       -1.2582667084
 Cl        -6.0623011045        0.9972544616       -0.1962087089
 Cl        -1.4454252696        0.9412161122       -0.4139427163
       6
 i =       2, E =      -24.8141674094
  C        -4.1560261370        0.9741575649       -0.2860269366
  H        -3.8445994361        2.0189379255       -0.2126094580
  H        -3.8280580414        0.3696639008        0.5629400788
  H        -3.9118838238        0.5225994113       -1.2515984818
 Cl        -6.0203342005        0.9967404650       -0.1982212225
 Cl        -1.4485030118        0.9412518252       -0.4138069224
       6
 i =       3, E =      -24.8143932153
  C        -4.1633657397        0.9738440023       -0.2867696937
  H        -3.8365215826        2.0175021400       -0.2130601632
  H        -3.8199720616        0.3702915104        0.5615729813
  H        -3.9038981141        0.5234986926       -1.2498356499
 Cl        -6.0165138028        0.9967047871       -0.1983828406
 Cl        -1.4424532675        0.9411734296       -0.4141061983
       6
 i =       4, E =      -24.8145128847
  C        -4.1656987968        0.9747023083       -0.2844386217
  H        -3.8322353120        2.0135963931       -0.2136867783
  H        -3.8158033994        0.3724866815        0.5579772030
  H        -3.8989203541        0.5242279960       -1.2484033638
 Cl        -6.0133759564        0.9966422797       -0.1986035705
 Cl        -1.4356812011        0.9410938984       -0.4144175498
       6
 i =       5, E =      -24.8145623944
  C        -4.1671837120        0.9738101185       -0.2867670561
  H        -3.8301556148        2.0137996248       -0.2136600773
  H        -3.8136597105        0.3722823010        0.5582987831
  H        -3.8973284850        0.5250479456       -1.2466688978
 Cl        -6.0121162186        0.9966511125       -0.1986023315
 Cl        -1.4320822468        0.9410425481       -0.4146065904
       6
 i =       6, E =      -24.8146123757
  C        -4.1682122037        0.9744753079       -0.2850076949
  H        -3.8287298557        2.0122480246       -0.2139292273
  H        -3.8122990565        0.3731729175        0.5568094179
  H        -3.8954529781        0.5250119434       -1.2467962640
 Cl        -6.0110043555        0.9966184884       -0.1987074979
 Cl        -1.4278622381        0.9409938844       -0.4147978381
       6
 i =       7, E =      -24.8146418740
  C        -4.1688876216        0.9743613694       -0.2852975999
  H        -3.8277924832        2.0118144430       -0.2139936238
  H        -3.8113597786        0.3733965342        0.5564498065
  H        -3.8945509788        0.5253072659       -1.2461824986
 Cl        -6.0106542555        0.9966168036       -0.1987186854
 Cl        -1.4251129721        0.9409585269       -0.4149319336
       6
 i =       8, E =      -24.8146551249
  C        -4.1692430153        0.9742617452       -0.2855517592
  H        -3.8274147219        2.0116759351       -0.2140102432
  H        -3.8109775234        0.3734639192        0.5563475139
  H        -3.8942187384        0.5254668019       -1.2458471957
 Cl        -6.0104195473        0.9966164141       -0.1987238616
 Cl        -1.4238405923        0.9409418232       -0.4149948463
       6
 i =       9, E =      -24.8147841035
  C        -4.1733113317        0.9737807007       -0.2867202000
  H        -3.8232658298        2.0095169185       -0.2143154936
  H        -3.8068299379        0.3746019206        0.5545439842
  H        -3.8901998691        0.5268570075       -1.2429558892
 Cl        -6.0079309134        0.9965958888       -0.1988224037
 Cl        -1.4085110277        0.9407454276       -0.4157400064
       6
 i =      10, E =      -24.8148058517
  C        -4.1736208048        0.9743744134       -0.2851793735
  H        -3.8232429804        2.0087311501       -0.2144468764
  H        -3.8068554128        0.3750756217        0.5537595873
  H        -3.8898019795        0.5265874740       -1.2435484517
 Cl        -6.0082656742        0.9965826622       -0.1988515378
 Cl        -1.4057873285        0.9407153271       -0.4158601008
       6
 i =      11, E =      -24.8148404773
  C        -4.1747462851        0.9740271412       -0.2860766407
  H        -3.8228853182        2.0084491446       -0.2144433617
  H        -3.8064775909        0.3752127578        0.5536066768
  H        -3.8896252462        0.5270766369       -1.2425020024
 Cl        -6.0086280360        0.9965949074       -0.1988138416
 Cl        -1.4005080253        0.9406467305       -0.4161194775
       6
 i =      12, E =      -24.8148561622
  C        -4.1752657685        0.9743447044       -0.2852183275
  H        -3.8228635982        2.0080103889       -0.2145154337
  H        -3.8064855920        0.3754837218        0.5531624624
  H        -3.8893993029        0.5269378423       -1.2428087434
 Cl        -6.0087098637        0.9965862649       -0.1988357098
 Cl        -1.3980559685        0.9406180287       -0.4162315092
       6
 i =      13, E =      -24.8148802451
  C        -4.1761826040        0.9741330179       -0.2857912748
  H        -3.8226756737        2.0078029784       -0.2145124599
  H        -3.8062815435        0.3755814659        0.5530536750
  H        -3.8893245902        0.5272619468       -1.2421134800
 Cl        -6.0088735400        0.9965925870       -0.1988155170
 Cl        -1.3937800279        0.9405627626       -0.4164409633
       6
 i =      14, E =      -24.8148846983
  C        -4.1763222052        0.9742105206       -0.2855734633
  H        -3.8226707559        2.0076839481       -0.2145312047
  H        -3.8062852356        0.3756564799        0.5529325192
  H        -3.8892680255        0.5272314681       -1.2421814593
 Cl        -6.0089039822        0.9965904947       -0.1988208083
 Cl        -1.3929797653        0.9405531690       -0.4164780600
       6
 i =      15, E =      -24.8149085171
  C        -4.1771969160        0.9744299397       -0.2849453399
  H        -3.8225858196        2.0071493334       -0.2146018992
  H        -3.8062276452        0.3759821843        0.5524254125
  H        -3.8890255175        0.5272338847       -1.2421863514
 Cl        -6.0090809360        0.9965846433       -0.1988340016
 Cl        -1.3881015723        0.9404929722       -0.4167089756
       6
 i =      16, E =      -24.8149158449
  C        -4.1775082552        0.9742518122       -0.2854452649
  H        -3.8225136598        2.0071706765       -0.2145804450
  H        -3.8061377060        0.3759510600        0.5525000519
  H        -3.8890606911        0.5274210898       -1.2417814474
 Cl        -6.0091298906        0.9965895832       -0.1988189555
 Cl        -1.3865556680        0.9404721801       -0.4167870127
       6
 i =      17, E =      -24.8149292720
  C        -4.1780789760        0.9743562225       -0.2851439614
  H        -3.8224792460        2.0068686771       -0.2146169619
  H        -3.8061172734        0.3761337179        0.5522206886
  H        -3.8889487972        0.5274449286       -1.2417352444
 Cl        -6.0092393274        0.9965867351       -0.1988246140
 Cl        -1.3834060303        0.9404328685       -0.4169373432
       6
 i =      18, E =      -24.8149347265
  C        -4.1783520311        0.9742794123       -0.2853443575
  H        -3.8224491074        2.0068279917       -0.2146117725
  H        -3.8060816128        0.3761521625        0.5522076765
  H        -3.8889600462        0.5275457883       -1.2415183436
 Cl        -6.0092965086        0.9965890448       -0.1988172770
 Cl        -1.3820705087        0.9404153819       -0.4170033594
       6
 i =      19, E =      -24.8149419021
  C        -4.1787171692        0.9742829080       -0.2853355554
  H        -3.8224305774        2.0066911756       -0.2146224847
  H        -3.8060643463        0.3762293260        0.5520978087
  H        -3.8889330440        0.5276068057       -1.2413884317
 Cl        -6.0093764479        0.9965891750       -0.1988151013
 Cl        -1.3802081419        0.9403917221       -0.4170934917
       6
 i =      20, E =      -24.8149514631
  C        -4.1792629315        0.9743445271       -0.2851727603
  H        -3.8224471869        2.0064542555       -0.2146456622
  H        -3.8060877041        0.3763672808        0.5518939156
  H        -3.8889032576        0.5276539174       -1.2412891763
 Cl        -6.0095233838        0.9965881910       -0.1988145217
 Cl        -1.3775706749        0.9403585385       -0.4172203144
       6
 i =      21, E =      -24.8149532509
  C        -4.1793786620        0.9743250331       -0.2852140220
  H        -3.8224496656        2.0064306470       -0.2146452114
  H        -3.8060901211        0.3763819235        0.5518769051
  H        -3.8889143299        0.5276838981       -1.2412249953
 Cl        -6.0095582703        0.9965889622       -0.1988120569
 Cl        -1.3770595846        0.9403519009       -0.4172453908
       6
 i =      22, E =      -24.8149638975
  C        -4.1801202535        0.9742800247       -0.2853144805
  H        -3.8224899071        2.0062234291       -0.2146528043
  H        -3.8061306022        0.3765013474        0.5517203983
  H        -3.8889680638        0.5278285835       -1.2409146512
 Cl        -6.0097902636        0.9965917677       -0.1988004438
 Cl        -1.3737812665        0.9403098375       -0.4174051717
       6
 i =      23, E =      -24.8149667239
  C        -4.1803354007        0.9743288269       -0.2851963856
  H        -3.8225303377        2.0061217593       -0.2146634268
  H        -3.8061742069        0.3765598504        0.5516322984
  H        -3.8889772560        0.5278284062       -1.2409150732
 Cl        -6.0098725015        0.9965910429       -0.1988004606
 Cl        -1.3728573223        0.9402983770       -0.4174492651
       6
 i =      24, E =      -24.8149742747
  C        -4.1809884249        0.9743142296       -0.2851938068
  H        -3.8226281870        2.0059385324       -0.2146713691
  H        -3.8062774866        0.3766739120        0.5514802461
  H        -3.8890694446        0.5279252837       -1.2407075267
 Cl        -6.0101224561        0.9965934664       -0.1987904397
 Cl        -1.3701884457        0.9402642641       -0.4175788851
       6
 i =      25, E =      -24.8149765546
  C        -4.1812078145        0.9743381416       -0.2851606247
  H        -3.8226790612        2.0058617289       -0.2146758192
  H        -3.8063267335        0.3767124107        0.5514265766
  H        -3.8891073730        0.5279451919       -1.2406632512
 Cl        -6.0102166690        0.9965936111       -0.1987874703
 Cl        -1.3693257925        0.9402534199       -0.4176205813
       6
 i =      26, E =      -24.8149778606
  C        -4.1813435141        0.9743387728       -0.2851572332
  H        -3.8227138212        2.0058261736       -0.2146767360
  H        -3.8063619653        0.3767335098        0.5513992193
  H        -3.8891400233        0.5279623254       -1.2406260113
 Cl        -6.0102789605        0.9965941598       -0.1987849453
 Cl        -1.3688204893        0.9402469811       -0.4176451189
       6
 i =      27, E =      -24.8149830532
  C        -4.1819123076        0.9743342658       -0.2851262466
  H        -3.8228471528        2.0056766136       -0.2146819229
  H        -3.8065015026        0.3768301553        0.5512719682
  H        -3.8892634536        0.5280330500       -1.2404739201
 Cl        -6.0105309199        0.9965965313       -0.1987752984
 Cl        -1.3666607777        0.9402194162       -0.4177498751
       6
 i =      28, E =      -24.8149839081
  C        -4.1820152250        0.9743408648       -0.2851226806
  H        -3.8228771484        2.0056467040       -0.2146827217
  H        -3.8065303029        0.3768446196        0.5512531353
  H        -3.8892903249        0.5280446354       -1.2404480997
 Cl        -6.0105801724        0.9965968018       -0.1987733165
 Cl        -1.3662838511        0.9402146521       -0.4177681732
       6
 i =      29, E =      -24.8149885879
  C        -4.1826270422        0.9743601390       -0.2850956841
  H        -3.8230563979        2.0054825479       -0.2146866195
  H        -3.8067086431        0.3769357040        0.5511352923
  H        -3.8894549296        0.5281144367       -1.2402946644
 Cl        -6.0108754687        0.9965990098       -0.1987615688
 Cl        -1.3640630079        0.9401864561       -0.4178759523
       6
 i =      30, E =      -24.8149899591
  C        -4.1828296083        0.9743522781       -0.2850832992
  H        -3.8231225059        2.0054401051       -0.2146868148
  H        -3.8067788069        0.3769682139        0.5510943370
  H        -3.8895192301        0.5281375580       -1.2402451290
 Cl        -6.0109797220        0.9966002325       -0.1987574605
 Cl        -1.3633575972        0.9401774085       -0.4179101717
       6
 i =      31, E =      -24.8149934327
  C        -4.1833994191        0.9743667952       -0.2850578362
  H        -3.8233222199        2.0053020373       -0.2146877749
  H        -3.8069784568        0.3770472374        0.5509952496
  H        -3.8897067879        0.5281981363       -1.2401113092
 Cl        -6.0112775947        0.9966027114       -0.1987454095
 Cl        -1.3614069466        0.9401526214       -0.4180048588
       6
 i =      32, E =      -24.8149944711
  C        -4.1835922799        0.9743627985       -0.2850461161
  H        -3.8233962037        2.0052631901       -0.2146873210
  H        -3.8070552790        0.3770754767        0.5509605747
  H        -3.8897784773        0.5282182763       -1.2400675930
 Cl        -6.0113842821        0.9966038793       -0.1987411398
 Cl        -1.3607709772        0.9401444811       -0.4180357180
       6
 i =      33, E =      -24.8149947080
  C        -4.1836430539        0.9743635170       -0.2850437205
  H        -3.8234227563        2.0052544236       -0.2146867266
  H        -3.8070819535        0.3770810234        0.5509544877
  H        -3.8898042558        0.5282225240       -1.2400579937
 Cl        -6.0114170744        0.9966042021       -0.1987397701
 Cl        -1.3606281208        0.9401426606       -0.4180426600
       6
 i =      34, E =      -24.8149971014
  C        -4.1841467966        0.9743736187       -0.2850213160
  H        -3.8236255634        2.0051440747       -0.2146854252
  H        -3.8072852852        0.3771462358        0.5508754524
  H        -3.8899975618        0.5282726837       -1.2399466139
 Cl        -6.0116986237        0.9966067209       -0.1987282421
 Cl        -1.3590038797        0.9401219960       -0.4181215370
       6
 i =      35, E =      -24.8149974715
  C        -4.1842337193        0.9743732532       -0.2850161883
  H        -3.8236633572        2.0051272346       -0.2146849516
  H        -3.8073239209        0.3771578021        0.5508616682
  H        -3.8900340934        0.5282810074       -1.2399282875
 Cl        -6.0117496926        0.9966072465       -0.1987261735
 Cl        -1.3587325851        0.9401185292       -0.4181347086
       6
 i =      36, E =      -24.8149993279
  C        -4.1847136924        0.9743759103       -0.2849909340
  H        -3.8238750502        2.0050327463       -0.2146821787
  H        -3.8075385108        0.3772191554        0.5507890886
  H        -3.8902382130        0.5283264900       -1.2398274967
 Cl        -6.0120327406        0.9966100345       -0.1987146116
 Cl        -1.3572481853        0.9400995891       -0.4182068007
       6
 i =      37, E =      -24.8149999175
  C        -4.1848889316        0.9743807630       -0.2849839158
  H        -3.8239585491        2.0049982799       -0.2146807718
  H        -3.8076216111        0.3772388909        0.5507665858
  H        -3.8903184593        0.5283421420       -1.2397921571
 Cl        -6.0121397485        0.9966109906       -0.1987101602
 Cl        -1.3567267073        0.9400929552       -0.4182321548
       6
 i =      38, E =      -24.8150011904
  C        -4.1853173605        0.9743854867       -0.2849628006
  H        -3.8241658927        2.0049197812       -0.2146769014
  H        -3.8078305903        0.3772889761        0.5507095711
  H        -3.8905190973        0.5283799634       -1.2397074450
 Cl        -6.0124041049        0.9966135645       -0.1986992596
 Cl        -1.3554734681        0.9400769625       -0.4182930728
       6
 i =      39, E =      -24.8150016100
  C        -4.1854806272        0.9743878755       -0.2849548268
  H        -3.8242498353        2.0048911540       -0.2146750871
  H        -3.8079149274        0.3773070661        0.5506895531
  H        -3.8906004375        0.5283936979       -1.2396764533
 Cl        -6.0125083865        0.9966145721       -0.1986949462
 Cl        -1.3550125481        0.9400710783       -0.4183154945
       6
 i =      40, E =      -24.8150017068
  C        -4.1855244196        0.9743882701       -0.2849526785
  H        -3.8242768577        2.0048853023       -0.2146742415
  H        -3.8079421100        0.3773111080        0.5506856619
  H        -3.8906269113        0.5283967834       -1.2396693428
 Cl        -6.0125394976        0.9966148881       -0.1986936486
 Cl        -1.3549073067        0.9400697270       -0.4183206305
       6
 i =      41, E =      -24.8150025075
  C        -4.1858874302        0.9743938850       -0.2849359915
  H        -3.8244671576        2.0048233442       -0.2146698479
  H        -3.8081331027        0.3773500160        0.5506432979
  H        -3.8908116089        0.5284267903       -1.2396014064
 Cl        -6.0127732080        0.9966171423       -0.1986839487
 Cl        -1.3539054561        0.9400569300       -0.4183693948
       6
 i =      42, E =      -24.8150026440
  C        -4.1859579483        0.9743943094       -0.2849320443
  H        -3.8245058643        2.0048122757       -0.2146688655
  H        -3.8081722088        0.3773576091        0.5506351622
  H        -3.8908493149        0.5284323431       -1.2395888543
 Cl        -6.0128200121        0.9966176153       -0.1986820239
 Cl        -1.3537171818        0.9400545175       -0.4183785633
       6
 i =      43, E =      -24.8150033755
  C        -4.1863953460        0.9743989416       -0.2849099217
  H        -3.8247479490        2.0047433516       -0.2146625910
  H        -3.8084159032        0.3774031844        0.5505869423
  H        -3.8910850980        0.5284666866       -1.2395108763
 Cl        -6.0131112493        0.9966205037       -0.1986699781
 Cl        -1.3525595748        0.9400396927       -0.4184349614
       6
 i =      44, E =      -24.8150035528
  C        -4.1865267219        0.9744017628       -0.2849048243
  H        -3.8248248743        2.0047234776       -0.2146603643
  H        -3.8084927094        0.3774152944        0.5505749540
  H        -3.8911600911        0.5284765166       -1.2394881985
 Cl        -6.0132014035        0.9966213609       -0.1986662049
 Cl        -1.3522287831        0.9400354551       -0.4184511126
       6
 i =      45, E =      -24.8150039628
  C        -4.1868969976        0.9744050541       -0.2848848188
  H        -3.8250440067        2.0046711048       -0.2146539412
  H        -3.8087134835        0.3774514223        0.5505386207
  H        -3.8913741374        0.5285032674       -1.2394269507
 Cl        -6.0134573913        0.9966239303       -0.1986556529
 Cl        -1.3513129104        0.9400236843       -0.4184958199
       6
 i =      46, E =      -24.8150040677
  C        -4.1870185190        0.9744080492       -0.2848809761
  H        -3.8251195436        2.0046540992       -0.2146515180
  H        -3.8087886524        0.3774614971        0.5505294498
  H        -3.8914479917        0.5285119117       -1.2394067643
 Cl        -6.0135437783        0.9966247443       -0.1986520183
 Cl        -1.3510268340        0.9400200082       -0.4185098300
       6
 i =      47, E =      -24.8150040879
  C        -4.1870473968        0.9744084956       -0.2848796981
  H        -3.8251405286        2.0046513401       -0.2146507061
  H        -3.8088096548        0.3774634629        0.5505281030
  H        -3.8914686393        0.5285135010       -1.2394029348
 Cl        -6.0135664327        0.9966249674       -0.1986510810
 Cl        -1.3509729999        0.9400193037       -0.4185124936
