       6
 i =       0, E =      -24.8049722093
  C        -4.0395962222        0.9726094558       -0.2918572534
  H        -3.8502679013        2.0048864697       -0.2134543654
  H        -3.8339567223        0.3778761521        0.5516291018
  H        -3.9167569085        0.5287646409       -1.2383820275
 Cl        -6.1192536392        0.9979455675       -0.1935188438
 Cl        -1.4536983353        0.9413208386       -0.4135449554
       6
 i =       1, E =      -24.8084929185
  C        -4.0462908022        0.9726326883       -0.2917680647
  H        -3.8291920008        2.0445233263       -0.2111095483
  H        -3.8122596263        0.3546952056        0.5835479104
  H        -3.8981882595        0.5115821280       -1.2752887031
 Cl        -6.0721081085        0.9973755271       -0.1957531335
 Cl        -1.4705504118        0.9415228473       -0.4127638385
       6
 i =       2, E =      -24.8098707935
  C        -4.0366494687        0.9726906168       -0.2915228658
  H        -3.8201969343        2.0291596073       -0.2128793295
  H        -3.8035429815        0.3633389413        0.5704249138
  H        -3.8880797551        0.5177660402       -1.2623454054
 Cl        -6.0183002736        0.9967139352       -0.1983403538
 Cl        -1.4829547410        0.9416678131       -0.4121927634
       6
 i =       3, E =      -24.8103997969
  C        -4.0424733071        0.9723272408       -0.2927688072
  H        -3.8085629833        2.0351704875       -0.2128430265
  H        -3.7917477577        0.3595514652        0.5752040906
  H        -3.8769953925        0.5155413140       -1.2672742064
 Cl        -6.0062975191        0.9965763839       -0.1988836458
 Cl        -1.4879983797        0.9417204043       -0.4119719268
       6
 i =       4, E =      -24.8107632308
  C        -4.0468344249        0.9733556633       -0.2894634414
  H        -3.8038291127        2.0344667985       -0.2132637284
  H        -3.7871249609        0.3600272281        0.5740027551
  H        -3.8718104968        0.5146413955       -1.2693420974
 Cl        -5.9953336027        0.9964124999       -0.1995016960
 Cl        -1.4893541705        0.9417341062       -0.4119028317
       6
 i =       5, E =      -24.8109614830
  C        -4.0486647598        0.9722616935       -0.2925780526
  H        -3.8027870492        2.0320407048       -0.2133645226
  H        -3.7860261112        0.3612871666        0.5723506079
  H        -3.8710583998        0.5168662711       -1.2645844173
 Cl        -5.9908717248        0.9963871179       -0.1996297378
 Cl        -1.4883782020        0.9417127430       -0.4119715769
       6
 i =       6, E =      -24.8111320665
  C        -4.0514461586        0.9731068105       -0.2905367771
  H        -3.8011882220        2.0317122413       -0.2135531328
  H        -3.7844539241        0.3614267084        0.5719014848
  H        -3.8691273444        0.5162029347       -1.2660439240
 Cl        -5.9880036211        0.9963278119       -0.1998241185
 Cl        -1.4874148054        0.9417015892       -0.4120114578
       6
 i =       7, E =      -24.8112413471
  C        -4.0531566084        0.9730050513       -0.2907072668
  H        -3.8004770896        2.0311913563       -0.2136165707
  H        -3.7837491848        0.3617237411        0.5714509682
  H        -3.8684276910        0.5165235165       -1.2653766500
 Cl        -5.9863127649        0.9963093741       -0.1999004837
 Cl        -1.4865327554        0.9416874939       -0.4120584075
       6
 i =       8, E =      -24.8112890184
  C        -4.0539790842        0.9728852726       -0.2909076306
  H        -3.8001141042        2.0311799343       -0.2136223780
  H        -3.7833883328        0.3617423006        0.5714225871
  H        -3.8681092565        0.5166318666       -1.2651542330
 Cl        -5.9856828062        0.9963047076       -0.1999250692
 Cl        -1.4860883731        0.9416801278       -0.4120827371
       6
 i =       9, E =      -24.8118191413
  C        -4.0636397685        0.9722171625       -0.2921388216
  H        -3.7961922058        2.0302105515       -0.2137938659
  H        -3.7794615346        0.3622859434        0.5705392904
  H        -3.8644052799        0.5177000432       -1.2629541673
 Cl        -5.9784645936        0.9962312130       -0.2002371035
 Cl        -1.4805404469        0.9415944047       -0.4123762841
       6
 i =      10, E =      -24.8118912705
  C        -4.0645708408        0.9730889678       -0.2904868833
  H        -3.7962773582        2.0288810466       -0.2139718155
  H        -3.7795501434        0.3629352367        0.5694795483
  H        -3.8640921114        0.5175393582       -1.2632912317
 Cl        -5.9783073858        0.9962041082       -0.2002918865
 Cl        -1.4791702734        0.9415813209       -0.4124333904
       6
 i =      11, E =      -24.8119933060
  C        -4.0662581398        0.9727151670       -0.2905700215
  H        -3.7959840677        2.0284456403       -0.2140097690
  H        -3.7793336205        0.3633725990        0.5688803196
  H        -3.8638780960        0.5179210622       -1.2625152001
 Cl        -5.9783025741        0.9962121382       -0.2002928416
 Cl        -1.4769090656        0.9415470019       -0.4125495937
       6
 i =      12, E =      -24.8120234464
  C        -4.0667851816        0.9728793424       -0.2909058085
  H        -3.7959248387        2.0283059330       -0.2140041196
  H        -3.7791943461        0.3632773875        0.5690191815
  H        -3.8637944268        0.5180008748       -1.2623144319
 Cl        -5.9783127112        0.9962061331       -0.2002847191
 Cl        -1.4761581583        0.9415376828       -0.4125906028
       6
 i =      13, E =      -24.8120768450
  C        -4.0676624524        0.9732540348       -0.2896144524
  H        -3.7958544331        2.0278476151       -0.2141001803
  H        -3.7791892710        0.3636268405        0.5684377976
  H        -3.8635666432        0.5177555402       -1.2628635910
 Cl        -5.9781843125        0.9961935613       -0.2003248834
 Cl        -1.4749187989        0.9415197496       -0.4126526355
       6
 i =      14, E =      -24.8120902737
  C        -4.0679192714        0.9729851448       -0.2902201826
  H        -3.7957954223        2.0279935064       -0.2140618246
  H        -3.7791161593        0.3635534874        0.5685876423
  H        -3.8636034390        0.5179488416       -1.2624499457
 Cl        -5.9781285703        0.9961996330       -0.2003105807
 Cl        -1.4746889839        0.9415151633       -0.4126689066
       6
 i =      15, E =      -24.8121604135
  C        -4.0693330286        0.9726749630       -0.2914542538
  H        -3.7956250602        2.0279694363       -0.2140072567
  H        -3.7788661002        0.3634490930        0.5688135426
  H        -3.8635763210        0.5183980050       -1.2614673491
 Cl        -5.9778126228        0.9962021060       -0.2002888121
 Cl        -1.4733056988        0.9414929273       -0.4127542485
       6
 i =      16, E =      -24.8121907339
  C        -4.0698405313        0.9732856560       -0.2898503946
  H        -3.7956672977        2.0274245052       -0.2141223372
  H        -3.7789639071        0.3637878504        0.5682180056
  H        -3.8633739679        0.5180143562       -1.2623011611
 Cl        -5.9776976611        0.9961844889       -0.2003361845
 Cl        -1.4727991119        0.9414874496       -0.4127746252
       6
 i =      17, E =      -24.8122469765
  C        -4.0711191691        0.9722057330       -0.2914453190
  H        -3.7954267020        2.0279167305       -0.2140155378
  H        -3.7787652397        0.3637432820        0.5684272505
  H        -3.8634613086        0.5186383385       -1.2610051520
 Cl        -5.9774853021        0.9962095918       -0.2003002013
 Cl        -1.4717567606        0.9414664933       -0.4128432104
       6
 i =      18, E =      -24.8122775834
  C        -4.0716183324        0.9734392668       -0.2899608323
  H        -3.7955675320        2.0269991527       -0.2141494595
  H        -3.7788200024        0.3639105098        0.5680394032
  H        -3.8632412453        0.5181895341       -1.2619100602
 Cl        -5.9773936467        0.9961752473       -0.2003443438
 Cl        -1.4712631236        0.9414650633       -0.4128620949
       6
 i =      19, E =      -24.8123150050
  C        -4.0723912334        0.9733776758       -0.2898573222
  H        -3.7955138483        2.0268816480       -0.2141636085
  H        -3.7787906145        0.3640347198        0.5678633975
  H        -3.8631833393        0.5182532277       -1.2617863947
 Cl        -5.9772720080        0.9961748470       -0.2003517535
 Cl        -1.4705944578        0.9414546580       -0.4128991777
       6
 i =      20, E =      -24.8123694746
  C        -4.0736359247        0.9721825592       -0.2909671017
  H        -3.7952895450        2.0274170932       -0.2140755609
  H        -3.7786881308        0.3641467009        0.5678379024
  H        -3.8632690183        0.5187906745       -1.2607079099
 Cl        -5.9771170633        0.9962040204       -0.2003276757
 Cl        -1.4695791691        0.9414336260       -0.4129623749
       6
 i =      21, E =      -24.8123828772
  C        -4.0738569062        0.9727442674       -0.2905473797
  H        -3.7953579699        2.0270139189       -0.2141229751
  H        -3.7786880809        0.3641540745        0.5677709478
  H        -3.8631944834        0.5186402549       -1.2609926616
 Cl        -5.9770872606        0.9961884282       -0.2003406186
 Cl        -1.4693687953        0.9414334105       -0.4129712296
       6
 i =      22, E =      -24.8124526450
  C        -4.0753270704        0.9739921693       -0.2892393034
  H        -3.7954763328        2.0259043405       -0.2142608119
  H        -3.7786965892        0.3643788020        0.5673120281
  H        -3.8629510669        0.5183252160       -1.2616021851
 Cl        -5.9769103215        0.9961516900       -0.2003847783
 Cl        -1.4680362779        0.9414201710       -0.4130362179
       6
 i =      23, E =      -24.8124775113
  C        -4.0758690221        0.9727415913       -0.2902060474
  H        -3.7952841328        2.0266072757       -0.2141680111
  H        -3.7786553296        0.3644623306        0.5673226201
  H        -3.8630753298        0.5187687028       -1.2607362375
 Cl        -5.9768561646        0.9961842645       -0.2003606122
 Cl        -1.4676268300        0.9414078346       -0.4130644357
       6
 i =      24, E =      -24.8125378614
  C        -4.0771768002        0.9739442505       -0.2899307964
  H        -3.7954097321        2.0256062512       -0.2142486498
  H        -3.7785632201        0.3644075154        0.5673104952
  H        -3.8629446340        0.5186661433       -1.2608477285
 Cl        -5.9767295344        0.9961494317       -0.2003750023
 Cl        -1.4664614244        0.9413973800       -0.4131248850
       6
 i =      25, E =      -24.8125600874
  C        -4.0776553179        0.9727811311       -0.2899464490
  H        -3.7952421314        2.0262155722       -0.2142069772
  H        -3.7786357217        0.3647198173        0.5669480750
  H        -3.8629860309        0.5188888656       -1.2604887233
 Cl        -5.9766861681        0.9961798790       -0.2003764325
 Cl        -1.4660607055        0.9413854638       -0.4131469688
       6
 i =      26, E =      -24.8125725167
  C        -4.0779292610        0.9727866027       -0.2899646438
  H        -3.7952368926        2.0261595277       -0.2142098988
  H        -3.7786273352        0.3647436235        0.5669154989
  H        -3.8629797960        0.5189195369       -1.2604218623
 Cl        -5.9766644996        0.9961792552       -0.2003771703
 Cl        -1.4658204493        0.9413820841       -0.4131597695
       6
 i =      27, E =      -24.8126234570
  C        -4.0790696458        0.9738021992       -0.2901761705
  H        -3.7953454591        2.0253328358       -0.2142556432
  H        -3.7785009151        0.3645815183        0.5670894325
  H        -3.8629152217        0.5189304550       -1.2602867448
 Cl        -5.9765700525        0.9961498384       -0.2003769831
 Cl        -1.4648146047        0.9413732494       -0.4132137338
       6
 i =      28, E =      -24.8126337441
  C        -4.0792771901        0.9733463110       -0.2899885558
  H        -3.7952820792        2.0255559724       -0.2142495170
  H        -3.7785540821        0.3647587064        0.5668610615
  H        -3.8629143508        0.5189790981       -1.2602375589
 Cl        -5.9765533739        0.9961617884       -0.2003828768
 Cl        -1.4646292011        0.9413681488       -0.4132226612
       6
 i =      29, E =      -24.8126872728
  C        -4.0804881779        0.9723904901       -0.2896906167
  H        -3.7951342326        2.0258720465       -0.2142425384
  H        -3.7786404148        0.3651920584        0.5663007816
  H        -3.8629013531        0.5191817425       -1.2599151586
 Cl        -5.9764652997        0.9961856270       -0.2003957563
 Cl        -1.4635490549        0.9413476603       -0.4132783172
       6
 i =      30, E =      -24.8127062700
  C        -4.0809016945        0.9733477699       -0.2900164564
  H        -3.7952529620        2.0252319292       -0.2142701803
  H        -3.7785210812        0.3649317162        0.5666213930
  H        -3.8628745569        0.5191512585       -1.2598691681
 Cl        -5.9764360550        0.9961590526       -0.2003888935
 Cl        -1.4631847758        0.9413478049       -0.4132986497
       6
 i =      31, E =      -24.8127544982
  C        -4.0819904422        0.9724844379       -0.2893600962
  H        -3.7951277994        2.0254939815       -0.2142836683
  H        -3.7786528832        0.3654283523        0.5659488562
  H        -3.8628312016        0.5192528767       -1.2597697246
 Cl        -5.9763679249        0.9961806871       -0.2004106511
 Cl        -1.4621821494        0.9413289596       -0.4133475544
       6
 i =      32, E =      -24.8127723461
  C        -4.0823963287        0.9733472274       -0.2900017475
  H        -3.7952315166        2.0249294360       -0.2142912715
  H        -3.7785020006        0.3651042006        0.5663803762
  H        -3.8628401139        0.5193027334       -1.2595467119
 Cl        -5.9763430301        0.9961567533       -0.2003949052
 Cl        -1.4618348564        0.9413288870       -0.4133687933
       6
 i =      33, E =      -24.8127765188
  C        -4.0824908530        0.9733447936       -0.2900097836
  H        -3.7952306991        2.0249115965       -0.2142920847
  H        -3.7785009368        0.3651136273        0.5663678196
  H        -3.8628398215        0.5193148494       -1.2595207068
 Cl        -5.9763401346        0.9961567317       -0.2003949129
 Cl        -1.4617457383        0.9413276435       -0.4133733690
       6
 i =      34, E =      -24.8128177430
  C        -4.0834209907        0.9726157331       -0.2891732279
  H        -3.7951309247        2.0251136727       -0.2143180817
  H        -3.7786510865        0.3656107800        0.5656771311
  H        -3.8627792129        0.5193424878       -1.2595742180
 Cl        -5.9762897653        0.9961751535       -0.2004207434
 Cl        -1.4608653820        0.9413112783       -0.4134144079
       6
 i =      35, E =      -24.8128260808
  C        -4.0836053264        0.9729577566       -0.2895457875
  H        -3.7951708609        2.0248914402       -0.2143154161
  H        -3.7785763254        0.3654533362        0.5658945523
  H        -3.8627939717        0.5193898809       -1.2594212560
 Cl        -5.9762800144        0.9961656573       -0.2004112671
 Cl        -1.4607094719        0.9413110167       -0.4134244391
       6
 i =      36, E =      -24.8128647371
  C        -4.0845340847        0.9736479565       -0.2902187841
  H        -3.7952480614        2.0243218888       -0.2143220202
  H        -3.7784315199        0.3652218409        0.5662091699
  H        -3.8628074287        0.5195283408       -1.2590251971
 Cl        -5.9762379762        0.9961458049       -0.2003958296
 Cl        -1.4598695780        0.9413031637       -0.4134712977
       6
 i =      37, E =      -24.8128800577
  C        -4.0848448857        0.9729898602       -0.2894678473
  H        -3.7951644627        2.0246133599       -0.2143377942
  H        -3.7785739300        0.3656088845        0.5656720375
  H        -3.8627638875        0.5194984665       -1.2591900334
 Cl        -5.9762225210        0.9961632629       -0.2004171879
 Cl        -1.4595569703        0.9412951365       -0.4134832276
       6
 i =      38, E =      -24.8129136759
  C        -4.0856633844        0.9735913438       -0.2901644648
  H        -3.7952328000        2.0241193789       -0.2143381873
  H        -3.7784351911        0.3653796529        0.5659901428
  H        -3.8627883222        0.5196443097       -1.2587859804
 Cl        -5.9761923333        0.9961460871       -0.2004004313
 Cl        -1.4588102269        0.9412881426       -0.4135253393
       6
 i =      39, E =      -24.8129275725
  C        -4.0859448331        0.9730303600       -0.2894254918
  H        -3.7951632750        2.0243584875       -0.2143568929
  H        -3.7785699873        0.3657383132        0.5654871977
  H        -3.8627420734        0.5195997794       -1.2589717725
 Cl        -5.9761804822        0.9961609794       -0.2004212952
 Cl        -1.4585203233        0.9412809792       -0.4135360663
       6
 i =      40, E =      -24.8129309123
  C        -4.0860214884        0.9730294596       -0.2894125101
  H        -3.7951634179        2.0243420817       -0.2143585974
  H        -3.7785718237        0.3657510701        0.5654688361
  H        -3.8627403801        0.5196054120       -1.2589604547
 Cl        -5.9761793102        0.9961609403       -0.2004217585
 Cl        -1.4584445905        0.9412799356       -0.4135398346
       6
 i =      41, E =      -24.8129588274
  C        -4.0867064564        0.9735022272       -0.2900402904
  H        -3.7952173053        2.0239493989       -0.2143554144
  H        -3.7784533410        0.3655542972        0.5657461331
  H        -3.8627681771        0.5197416234       -1.2585930916
 Cl        -5.9761575744        0.9961474278       -0.2004062817
 Cl        -1.4578155493        0.9412738919       -0.4135754972
       6
 i =      42, E =      -24.8129648233
  C        -4.0868254911        0.9733052629       -0.2897468972
  H        -3.7951934878        2.0240269106       -0.2143640056
  H        -3.7785053029        0.3656918952        0.5655515646
  H        -3.8627486398        0.5197210779       -1.2586703943
 Cl        -5.9761536062        0.9961526450       -0.2004145443
 Cl        -1.4576914735        0.9412710696       -0.4135801844
       6
 i =      43, E =      -24.8129978866
  C        -4.0875879221        0.9728583874       -0.2890607121
  H        -3.7951387204        2.0240972834       -0.2143915765
  H        -3.7786252085        0.3660678286        0.5650204057
  H        -3.8626974532        0.5197232401       -1.2587428494
 Cl        -5.9761330900        0.9961640133       -0.2004347923
 Cl        -1.4569332179        0.9412580783       -0.4136150493
       6
 i =      44, E =      -24.8130086415
  C        -4.0878530260        0.9732941839       -0.2896730061
  H        -3.7951902170        2.0238143840       -0.2143816887
  H        -3.7785129322        0.3658343573        0.5653502174
  H        -3.8627314758        0.5198166043       -1.2584711936
 Cl        -5.9761255807        0.9961519319       -0.2004186636
 Cl        -1.4567018528        0.9412573630       -0.4136302642
       6
 i =      45, E =      -24.8130361024
  C        -4.0884869524        0.9729683752       -0.2891350792
  H        -3.7951520737        2.0238452872       -0.2144048783
  H        -3.7786071769        0.3661288910        0.5649326421
  H        -3.8626910706        0.5198193576       -1.2585232254
 Cl        -5.9761140176        0.9961601872       -0.2004343230
 Cl        -1.4560624284        0.9412467089       -0.4136597993
       6
 i =      46, E =      -24.8130455444
  C        -4.0887224408        0.9732813274       -0.2895995794
  H        -3.7951891666        2.0236339501       -0.2143971596
  H        -3.7785236561        0.3659598969        0.5651726397
  H        -3.8627180050        0.5198965652       -1.2583053343
 Cl        -5.9761090300        0.9961514867       -0.2004220750
 Cl        -1.4558510786        0.9412455766       -0.4136731706
       6
 i =      47, E =      -24.8130475955
  C        -4.0887707772        0.9732825180       -0.2896007565
  H        -3.7951896335        2.0236230736       -0.2143978171
  H        -3.7785237765        0.3659650250        0.5651655201
  H        -3.8627179970        0.5199018498       -1.2582938855
 Cl        -5.9761090245        0.9961514254       -0.2004220837
 Cl        -1.4558021824        0.9412449113       -0.4136756560
