       6
 i =       0, E =      -24.8116066906
  C        -3.5022849071        0.9659715029       -0.3171886818
  H        -3.7445828605        2.0035513872       -0.2184673887
  H        -3.7284913622        0.3764788911        0.5466310478
  H        -3.8106418896        0.5274002323       -1.2433487124
 Cl        -6.2147900897        0.9991349041       -0.1890001753
 Cl        -1.5492111478        0.9424967669       -0.4090560682
       6
 i =       1, E =      -24.8133609560
  C        -3.4968576077        0.9659656097       -0.3175959073
  H        -3.7615703457        2.0260567566       -0.2157983357
  H        -3.7450691574        0.3638641973        0.5658658999
  H        -3.8290673550        0.5181516903       -1.2626444029
 Cl        -6.2039580411        0.9989976093       -0.1895217948
 Cl        -1.5870566735        0.9429258879       -0.4072644765
       6
 i =       2, E =      -24.8141685016
  C        -3.4932843605        0.9658450776       -0.3173691547
  H        -3.7710230467        2.0181166631       -0.2160706792
  H        -3.7545258916        0.3687400950        0.5594310345
  H        -3.8380666669        0.5216926740       -1.2549817174
 Cl        -6.2008791235        0.9989535189       -0.1896776240
 Cl        -1.6290178834        0.9434111235       -0.4053086034
       6
 i =       3, E =      -24.8144023790
  C        -3.4852866516        0.9659932403       -0.3185722124
  H        -3.7788278098        2.0165878767       -0.2158058392
  H        -3.7624606078        0.3694362537        0.5589647342
  H        -3.8456866030        0.5225950242       -1.2528526894
 Cl        -6.2070224005        0.9990263235       -0.1894008539
 Cl        -1.6328727453        0.9434403116       -0.4051135432
       6
 i =       4, E =      -24.8145454987
  C        -3.4813789546        0.9654558420       -0.3170812880
  H        -3.7831207007        2.0129012552       -0.2159985338
  H        -3.7665218779        0.3723078090        0.5550524579
  H        -3.8499140113        0.5240621238       -1.2497773625
 Cl        -6.2144969753        0.9991109611       -0.1890443887
 Cl        -1.6356937521        0.9434803111       -0.4050364128
       6
 i =       5, E =      -24.8145993979
  C        -3.4794992936        0.9659855372       -0.3189795318
  H        -3.7848721034        2.0123508210       -0.2158795355
  H        -3.7685870598        0.3719180989        0.5557969215
  H        -3.8514455556        0.5245346783       -1.2486082407
 Cl        -6.2185879728        0.9991629103       -0.1888670238
 Cl        -1.6365522089        0.9434724365       -0.4049510055
       6
 i =       6, E =      -24.8146541902
  C        -3.4779204530        0.9655734325       -0.3177534271
  H        -3.7863061129        2.0113156489       -0.2159588635
  H        -3.7698074449        0.3730727458        0.5541847950
  H        -3.8529471093        0.5248589262       -1.2479853673
 Cl        -6.2233568077        0.9992166626       -0.1886371962
 Cl        -1.6372695203        0.9434887724       -0.4049579761
       6
 i =       7, E =      -24.8146860378
  C        -3.4769827734        0.9656339732       -0.3180437321
  H        -3.7871149847        2.0107221258       -0.2159590760
  H        -3.7706654897        0.3733311849        0.5538777701
  H        -3.8536918022        0.5251577324       -1.2473177803
 Cl        -6.2264455822        0.9992537350       -0.1884955381
 Cl        -1.6373715739        0.9434862763       -0.4049496206
       6
 i =       8, E =      -24.8146994214
  C        -3.4765903859        0.9656919015       -0.3182692701
  H        -3.7874195362        2.0104771393       -0.2159556040
  H        -3.7710089365        0.3733936807        0.5538167853
  H        -3.8539593803        0.5252921480       -1.2470117752
 Cl        -6.2278409210        0.9992706729       -0.1884322387
 Cl        -1.6375185332        0.9434855383       -0.4049384358
       6
 i =       9, E =      -24.8148288181
  C        -3.4720055975        0.9659685253       -0.3195128923
  H        -3.7909082170        2.0077725168       -0.2159683123
  H        -3.7747110862        0.3745888749        0.5523785707
  H        -3.8571756400        0.5266283289       -1.2440330885
 Cl        -6.2445529117        0.9994707085       -0.1876643540
 Cl        -1.6390255758        0.9434853730       -0.4048563221
       6
 i =      10, E =      -24.8148471629
  C        -3.4716265283        0.9656053555       -0.3183739116
  H        -3.7910314025        2.0076290567       -0.2160255520
  H        -3.7746256464        0.3751528101        0.5515353580
  H        -3.8574112827        0.5265649423       -1.2442477166
 Cl        -6.2472809888        0.9995006041       -0.1875298494
 Cl        -1.6386610474        0.9434900384       -0.4049082129
       6
 i =      11, E =      -24.8148778328
  C        -3.4706067316        0.9658031449       -0.3191474956
  H        -3.7911315101        2.0070713714       -0.2160324563
  H        -3.7748627140        0.3751851993        0.5515286160
  H        -3.8573971346        0.5268935784       -1.2434989795
 Cl        -6.2525954833        0.9995649996       -0.1872880802
 Cl        -1.6382122233        0.9434770982       -0.4049148227
       6
 i =      12, E =      -24.8148919757
  C        -3.4699100100        0.9656206104       -0.3185422178
  H        -3.7911426285        2.0069396682       -0.2160702939
  H        -3.7747644654        0.3755122325        0.5510368840
  H        -3.8574740035        0.5268708799       -1.2435901481
 Cl        -6.2551175903        0.9995936911       -0.1871667743
 Cl        -1.6380501658        0.9434791608       -0.4049426855
       6
 i =      13, E =      -24.8149146505
  C        -3.4687178067        0.9657194822       -0.3190653903
  H        -3.7910420374        2.0064960069       -0.2160889732
  H        -3.7747485815        0.3755913983        0.5509399984
  H        -3.8572887478        0.5271247639       -1.2430238231
 Cl        -6.2596173009        0.9996477325       -0.1869611369
 Cl        -1.6376584226        0.9434698314       -0.4049525946
       6
 i =      14, E =      -24.8149189957
  C        -3.4684513296        0.9656809667       -0.3189212460
  H        -3.7910020498        2.0064309061       -0.2161028277
  H        -3.7746838411        0.3756854737        0.5507965413
  H        -3.8572651367        0.5271294933       -1.2430244732
 Cl        -6.2604972575        0.9996579152       -0.1869192585
 Cl        -1.6375503768        0.9434692167       -0.4049628664
       6
 i =      15, E =      -24.8149425619
  C        -3.4668058237        0.9655563560       -0.3185516355
  H        -3.7907118984        2.0059884704       -0.2161705974
  H        -3.7743258343        0.3761010221        0.5501672417
  H        -3.8570052515        0.5272521730       -1.2427988619
 Cl        -6.2659070014        0.9997212683       -0.1866652530
 Cl        -1.6368538691        0.9434619232       -0.4050131420
       6
 i =      16, E =      -24.8149499362
  C        -3.4662116575        0.9656374775       -0.3189611170
  H        -3.7905223118        2.0057946308       -0.2161777860
  H        -3.7742026584        0.3760684749        0.5502188789
  H        -3.8567550567        0.5273865293       -1.2424936193
 Cl        -6.2677071795        0.9997431775       -0.1865842346
 Cl        -1.6365410542        0.9434550885       -0.4050187912
       6
 i =      17, E =      -24.8149633652
  C        -3.4649089220        0.9655840870       -0.3188452102
  H        -3.7901011540        2.0054862976       -0.2162292353
  H        -3.7737573174        0.3763017126        0.5498520293
  H        -3.8563394545        0.5274853438       -1.2423035912
 Cl        -6.2714023234        0.9997866943       -0.1864115430
 Cl        -1.6358474731        0.9434464995       -0.4050594597
       6
 i =      18, E =      -24.8149686361
  C        -3.4643215870        0.9656045110       -0.3190000624
  H        -3.7898618251        2.0053409373       -0.2162461289
  H        -3.7735409997        0.3763351063        0.5497950608
  H        -3.8560745571        0.5275625437       -1.2421369297
 Cl        -6.2729822457        0.9998055908       -0.1863390544
 Cl        -1.6354992166        0.9434409844       -0.4050734910
       6
 i =      19, E =      -24.8149752900
  C        -3.4635016589        0.9655962685       -0.3190456471
  H        -3.7895384994        2.0051531850       -0.2162755088
  H        -3.7732216949        0.3764345509        0.5496331961
  H        -3.8557392559        0.5276386437       -1.2419817383
 Cl        -6.2751777075        0.9998316054       -0.1862372038
 Cl        -1.6350211869        0.9434344056       -0.4050974978
       6
 i =      20, E =      -24.8149836705
  C        -3.4622532000        0.9655667694       -0.3190355803
  H        -3.7889558440        2.0049053314       -0.2163249130
  H        -3.7726316452        0.3765907143        0.5493703766
  H        -3.8551514450        0.5277246332       -1.2418155519
 Cl        -6.2782770475        0.9998682159       -0.1860929390
 Cl        -1.6342285539        0.9434241368       -0.4051389213
       6
 i =      21, E =      -24.8149851313
  C        -3.4620021898        0.9655683570       -0.3190689764
  H        -3.7888234250        2.0048573518       -0.2163338467
  H        -3.7725034985        0.3766080716        0.5493381649
  H        -3.8550133580        0.5277461502       -1.2417713193
 Cl        -6.2788660690        0.9998752190       -0.1860657658
 Cl        -1.6340597767        0.9434217576       -0.4051466083
       6
 i =      22, E =      -24.8149931591
  C        -3.4603781235        0.9655633102       -0.3192102834
  H        -3.7879539462        2.0045587819       -0.2163945956
  H        -3.7716494630        0.3767396789        0.5490979516
  H        -3.8541180661        0.5278686497       -1.2415253910
 Cl        -6.2826224368        0.9999197750       -0.1858920235
 Cl        -1.6329601454        0.9434067046       -0.4051988350
       6
 i =      23, E =      -24.8149950059
  C        -3.4599006764        0.9655470179       -0.3191838103
  H        -3.7876679755        2.0044884044       -0.2164154641
  H        -3.7713565792        0.3767922665        0.5490024456
  H        -3.8538346204        0.5278866179       -1.2414961930
 Cl        -6.2836345103        0.9999316714       -0.1858448376
 Cl        -1.6326166547        0.9434024565       -0.4052169793
       6
 i =      24, E =      -24.8149993438
  C        -3.4585151390        0.9655310037       -0.3192586942
  H        -3.7868080484        2.0042806081       -0.2164709903
  H        -3.7705011838        0.3768926705        0.5488047510
  H        -3.8529613679        0.5279627829       -1.2413519238
 Cl        -6.2865042000        0.9999655847       -0.1857120895
 Cl        -1.6316030320        0.9433890687       -0.4052658100
       6
 i =      25, E =      -24.8150004265
  C        -3.4580558096        0.9655254189       -0.3192681367
  H        -3.7864991927        2.0042200615       -0.2164905282
  H        -3.7701920359        0.3769244085        0.5487390228
  H        -3.8526513533        0.5279805668       -1.2413211105
 Cl        -6.2873758605        0.9999758643       -0.1856717467
 Cl        -1.6312530408        0.9433844793       -0.4052830954
       6
 i =      26, E =      -24.8150009848
  C        -3.4577811787        0.9655226674       -0.3192855303
  H        -3.7863020778        2.0041884459       -0.2165018884
  H        -3.7699960951        0.3769374088        0.5487080608
  H        -3.8524517991        0.5279915146       -1.2413017280
 Cl        -6.2878542393        0.9999814974       -0.1856497277
 Cl        -1.6310362304        0.9433816255       -0.4052933535
       6
 i =      27, E =      -24.8150028852
  C        -3.4566188360        0.9655055975       -0.3193427676
  H        -3.7854942845        2.0040477830       -0.2165499877
  H        -3.7691901011        0.3770039324        0.5485617057
  H        -3.8516351068        0.5280395487       -1.2412166974
 Cl        -6.2899479301        1.0000061324       -0.1855531738
 Cl        -1.6301343800        0.9433698806       -0.4053365115
       6
 i =      28, E =      -24.8150031268
  C        -3.4564138026        0.9655043243       -0.3193483624
  H        -3.7853427905        2.0040248128       -0.2165589478
  H        -3.7690388893        0.3770144627        0.5485366956
  H        -3.8514834354        0.5280453377       -1.2412076127
 Cl        -6.2902848889        1.0000100956       -0.1855376504
 Cl        -1.6299697538        0.9433676979       -0.4053445324
       6
 i =      29, E =      -24.8150040953
  C        -3.4552029031        0.9654927295       -0.3194020734
  H        -3.7844409265        2.0038954190       -0.2166107452
  H        -3.7681397396        0.3770704418        0.5483987137
  H        -3.8505759886        0.5280831517       -1.2411459141
 Cl        -6.2922384758        1.0000330317       -0.1854478404
 Cl        -1.6289926719        0.9433548372       -0.4053913788
       6
 i =      30, E =      -24.8150042421
  C        -3.4548157208        0.9654851652       -0.3194284833
  H        -3.7841363804        2.0038630133       -0.2166268847
  H        -3.7678358977        0.3770829489        0.5483619448
  H        -3.8502675664        0.5280947847       -1.2411274425
 Cl        -6.2927908567        1.0000394573       -0.1854226318
 Cl        -1.6286700315        0.9433506916       -0.4054064181
       6
 i =      31, E =      -24.8150043078
  C        -3.4537387647        0.9654736565       -0.3194585697
  H        -3.7832762556        2.0037696555       -0.2166746058
  H        -3.7669756187        0.3771239326        0.5482471728
  H        -3.8494071160        0.5281143832       -1.2411043497
 Cl        -6.2942524619        1.0000564785       -0.1853557867
 Cl        -1.6277667126        0.9433388584       -0.4054499952
       6
 i =      32, E =      -24.8150042364
  C        -3.4533889555        0.9654684317       -0.3194960468
  H        -3.7829828469        2.0037462839       -0.2166889413
  H        -3.7666846898        0.3771273341        0.5482247239
  H        -3.8491083443        0.5281246113       -1.2410879193
 Cl        -6.2946602971        1.0000611739       -0.1853374622
 Cl        -1.6274635457        0.9433348987       -0.4054637132
       6
 i =      33, E =      -24.8150042250
  C        -3.4533096233        0.9654672193       -0.3195014031
  H        -3.7829044643        2.0037451742       -0.2166925274
  H        -3.7666064811        0.3771262065        0.5482214241
  H        -3.8490296204        0.5281242054       -1.2410903508
 Cl        -6.2946878361        1.0000614401       -0.1853363926
 Cl        -1.6273874212        0.9433339065       -0.4054672446
       6
 i =      34, E =      -24.8150038492
  C        -3.4524103203        0.9654559551       -0.3195169418
  H        -3.7821421900        2.0036840665       -0.2167334013
  H        -3.7658423892        0.3771530716        0.5481328748
  H        -3.8482696884        0.5281309877       -1.2410928297
 Cl        -6.2956543559        1.0000725161       -0.1852926719
 Cl        -1.6266055362        0.9433237020       -0.4055050939
       6
 i =      35, E =      -24.8150037714
  C        -3.4522620573        0.9654546561       -0.3195354894
  H        -3.7820107769        2.0036762012       -0.2167395087
  H        -3.7657125260        0.3771520478        0.5481265412
  H        -3.8481358647        0.5281345930       -1.2410873579
 Cl        -6.2957851918        1.0000739918       -0.1852869416
 Cl        -1.6264724686        0.9433219272       -0.4055110455
       6
 i =      36, E =      -24.8150032500
  C        -3.4514492974        0.9654447007       -0.3195977828
  H        -3.7812881408        2.0036345290       -0.2167747087
  H        -3.7649933974        0.3771564219        0.5480754343
  H        -3.8474069940        0.5281455853       -1.2410779268
 Cl        -6.2964717215        1.0000816836       -0.1852567421
 Cl        -1.6257423810        0.9433123160       -0.4055448710
       6
 i =      37, E =      -24.8150030566
  C        -3.4511649417        0.9654404689       -0.3195880855
  H        -3.7810273521        2.0036224106       -0.2167885579
  H        -3.7647301810        0.3771642048        0.5480464800
  H        -3.8471501322        0.5281411516       -1.2410937257
 Cl        -6.2966496613        1.0000835951       -0.1852489697
 Cl        -1.6254826489        0.9433089376       -0.4055578484
       6
 i =      38, E =      -24.8150025548
  C        -3.4504875068        0.9654345925       -0.3196377450
  H        -3.7803958471        2.0035968379       -0.2168185135
  H        -3.7641018219        0.3771611749        0.5480114106
  H        -3.8465152294        0.5281444169       -1.2410988014
 Cl        -6.2970201351        1.0000875066       -0.1852335177
 Cl        -1.6248556532        0.9433005595       -0.4055869839
       6
 i =      39, E =      -24.8150023826
  C        -3.4502411893        0.9654286237       -0.3196328060
  H        -3.7801598988        2.0035915125       -0.2168303652
  H        -3.7638635372        0.3771652570        0.5479898262
  H        -3.8462817677        0.5281399343       -1.2411141259
 Cl        -6.2970993257        1.0000882069       -0.1852304381
 Cl        -1.6246234710        0.9432975908       -0.4055984645
       6
 i =      40, E =      -24.8150023764
  C        -3.4501890087        0.9654279137       -0.3196351312
  H        -3.7801019850        2.0035929839       -0.2168328504
  H        -3.7638055953        0.3771633726        0.5479888669
  H        -3.8462240879        0.5281383184       -1.2411187443
 Cl        -6.2970584467        1.0000876342       -0.1852326034
 Cl        -1.6245688528        0.9432968506       -0.4056010642
       6
 i =      41, E =      -24.8150020079
  C        -3.4496588144        0.9654253259       -0.3196711004
  H        -3.7795846477        2.0035799178       -0.2168568235
  H        -3.7632907891        0.3771561158        0.5479667952
  H        -3.8457057943        0.5281360618       -1.2411332901
 Cl        -6.2971729172        1.0000884995       -0.1852290077
 Cl        -1.6240625867        0.9432899665       -0.4056247357
       6
 i =      42, E =      -24.8150019499
  C        -3.4495609395        0.9654222442       -0.3196711717
  H        -3.7794868208        2.0035798041       -0.2168614476
  H        -3.7631920621        0.3771564416        0.5479599805
  H        -3.8456085248        0.5281341244       -1.2411397735
 Cl        -6.2971717985        1.0000883603       -0.1852293854
 Cl        -1.6239673625        0.9432887570       -0.4056293877
       6
 i =      43, E =      -24.8150015939
  C        -3.4489621070        0.9654111520       -0.3196875721
  H        -3.7788834190        2.0035763774       -0.2168894525
  H        -3.7625867756        0.3771517425        0.5479280577
  H        -3.8450074080        0.5281240202       -1.2411743969
 Cl        -6.2971377278        1.0000872124       -0.1852331308
 Cl        -1.6233818878        0.9432810308       -0.4056575441
       6
 i =      44, E =      -24.8150015265
  C        -3.4487968172        0.9654129876       -0.3197050464
  H        -3.7787090494        2.0035755458       -0.2168969146
  H        -3.7624144695        0.3771444093        0.5479278965
  H        -3.8448325643        0.5281221581       -1.2411811187
 Cl        -6.2970733701        1.0000862257       -0.1852369397
 Cl        -1.6232151359        0.9432786306       -0.4056652182
       6
 i =      45, E =      -24.8150013678
  C        -3.4483423489        0.9654035634       -0.3197207497
  H        -3.7782274687        2.0035823175       -0.2169181978
  H        -3.7619314487        0.3771348623        0.5479111393
  H        -3.8443526436        0.5281113212       -1.2412145219
 Cl        -6.2968489615        1.0000828103       -0.1852495304
 Cl        -1.6227541019        0.9432724836       -0.4056874002
       6
 i =      46, E =      -24.8150013514
  C        -3.4482054333        0.9654057170       -0.3197313261
  H        -3.7780757956        2.0035836526       -0.2169246630
  H        -3.7617811751        0.3771280609        0.5479114214
  H        -3.8442017261        0.5281076538       -1.2412248295
 Cl        -6.2967326280        1.0000811860       -0.1852557611
 Cl        -1.6226109157        0.9432703752       -0.4056941679
       6
 i =      47, E =      -24.8150013818
  C        -3.4481842909        0.9654055067       -0.3197321280
  H        -3.7780468320        2.0035861746       -0.2169257200
  H        -3.7617521766        0.3771260938        0.5479124672
  H        -3.8441731113        0.5281060473       -1.2412288178
 Cl        -6.2966651833        1.0000802932       -0.1852591560
 Cl        -1.6225847702        0.9432699907       -0.4056954683
