       6
 i =       0, E =      -24.7992623541
  C        -3.9321339591        0.9712818653       -0.2969235390
  H        -3.8291308931        2.0046194532       -0.2144569701
  H        -3.8128636503        0.3775966999        0.5506294910
  H        -3.8955339048        0.5284917592       -1.2393753644
 Cl        -6.1383609293        0.9981834348       -0.1926151101
 Cl        -1.4728008978        0.9415560242       -0.4126471780
       6
 i =       1, E =      -24.8030174221
  C        -3.9365342094        0.9712944953       -0.2969751423
  H        -3.8152443333        2.0554748013       -0.2108290427
  H        -3.7981694357        0.3481231119        0.5920801675
  H        -3.8848768104        0.5066569653       -1.2860151161
 Cl        -6.0966745021        0.9976757741       -0.1945969292
 Cl        -1.4957562249        0.9418283967       -0.4115796901
       6
 i =       2, E =      -24.8043061725
  C        -3.9314809028        0.9713856871       -0.2963675402
  H        -3.8129639278        2.0310704237       -0.2130568617
  H        -3.7962924636        0.3621354037        0.5716753710
  H        -3.8809648992        0.5168004728       -1.2645431820
 Cl        -6.0482297846        0.9970791764       -0.1969279366
 Cl        -1.5188185341        0.9420966960       -0.4105120610
       6
 i =       3, E =      -24.8048687027
  C        -3.9392814509        0.9710887630       -0.2980074860
  H        -3.8049790479        2.0485304630       -0.2118681252
  H        -3.7879482982        0.3517248178        0.5862376776
  H        -3.8741756913        0.5098603931       -1.2793920211
 Cl        -6.0386471706        0.9969670063       -0.1973539223
 Cl        -1.5310570182        0.9422367057       -0.4099456503
       6
 i =       4, E =      -24.8051680293
  C        -3.9402997652        0.9721040487       -0.2934447040
  H        -3.8054451826        2.0399781406       -0.2127831093
  H        -3.7886940645        0.3571114563        0.5782369444
  H        -3.8738651984        0.5120641129       -1.2748268470
 Cl        -6.0252857897        0.9967802731       -0.1980935685
 Cl        -1.5354159340        0.9422807787       -0.4097523685
       6
 i =       5, E =      -24.8053089612
  C        -3.9431878785        0.9707973251       -0.2986234119
  H        -3.8040355272        2.0426516169       -0.2123751603
  H        -3.7870685957        0.3550743071        0.5814088322
  H        -3.8729094290        0.5126969686       -1.2733816321
 Cl        -6.0226367127        0.9967742478       -0.1981099093
 Cl        -1.5368314210        0.9422948749       -0.4096925888
       6
 i =       6, E =      -24.8054477916
  C        -3.9455694038        0.9722092827       -0.2942144487
  H        -3.8033560072        2.0421152763       -0.2126442104
  H        -3.7864989336        0.3555888894        0.5803403243
  H        -3.8719340330        0.5113425143       -1.2763439312
 Cl        -6.0196133208        0.9967072207       -0.1983503508
 Cl        -1.5376325558        0.9423001060       -0.4096586834
       6
 i =       7, E =      -24.8055373102
  C        -3.9471638132        0.9718938453       -0.2949468264
  H        -3.8030026095        2.0422345351       -0.2126096764
  H        -3.7861301045        0.3555192180        0.5804831196
  H        -3.8716423503        0.5116115395       -1.2757714626
 Cl        -6.0179453877        0.9966928447       -0.1984143208
 Cl        -1.5378049882        0.9422997655       -0.4096552985
       6
 i =       8, E =      -24.8055722262
  C        -3.9477927269        0.9716180719       -0.2956682479
  H        -3.8028296557        2.0424106263       -0.2125658972
  H        -3.7859393236        0.3554030759        0.5806965234
  H        -3.8715307230        0.5118247490       -1.2753123972
 Cl        -6.0172919351        0.9966902662       -0.1984300505
 Cl        -1.5378726103        0.9422995063       -0.4096547882
       6
 i =       9, E =      -24.8058515954
  C        -3.9533422361        0.9705880363       -0.2991703738
  H        -3.8011757764        2.0428258724       -0.2124059584
  H        -3.7841568645        0.3548993726        0.5816004586
  H        -3.8701293215        0.5129467587       -1.2728788982
 Cl        -6.0105302877        0.9966239583       -0.1986841913
 Cl        -1.5390405956        0.9423007191       -0.4096261958
       6
 i =      10, E =      -24.8057540682
  C        -3.9508154332        0.9720261136       -0.2948719813
  H        -3.8014289072        2.0417203206       -0.2126930179
  H        -3.7845333942        0.3557312794        0.5801136559
  H        -3.8700083224        0.5117915061       -1.2753997268
 Cl        -6.0115236383        0.9966035036       -0.1987383513
 Cl        -1.5398392770        0.9423091422       -0.4095864040
       6
 i =      11, E =      -24.8056025023
  C        -3.9480324470        0.9704385399       -0.2981351724
  H        -3.8013732881        2.0430012197       -0.2124398915
  H        -3.7844225728        0.3551564512        0.5811992876
  H        -3.8703273183        0.5126150010       -1.2736510166
 Cl        -6.0126984238        0.9966486325       -0.1986112192
 Cl        -1.5409109206        0.9423171776       -0.4095559285
       6
 i =      12, E =      -24.8055951817
  C        -3.9475761025        0.9721361332       -0.2954381740
  H        -3.8015315507        2.0419337646       -0.2126445569
  H        -3.7845686133        0.3554318081        0.5805673635
  H        -3.8701803584        0.5117439862       -1.2754638105
 Cl        -6.0127478444        0.9966129714       -0.1986688207
 Cl        -1.5410329044        0.9423167490       -0.4095519615
       6
 i =      13, E =      -24.8055870711
  C        -3.9475431330        0.9701835501       -0.2972006113
  H        -3.8013559823        2.0432394320       -0.2124622526
  H        -3.7844905366        0.3553921229        0.5808448861
  H        -3.8702964961        0.5123930123       -1.2741952518
 Cl        -6.0126888176        0.9966513378       -0.1986286146
 Cl        -1.5410712509        0.9423135461       -0.4095671334
       6
 i =      14, E =      -24.8055952407
  C        -3.9475931466        0.9710084617       -0.2967290242
  H        -3.8014146133        2.0427195350       -0.2125219641
  H        -3.7844893199        0.3553278031        0.5808595411
  H        -3.8702458338        0.5121711265       -1.2746072438
 Cl        -6.0126462667        0.9966333889       -0.1986420278
 Cl        -1.5410313654        0.9423123622       -0.4095694699
       6
 i =      15, E =      -24.8056197817
  C        -3.9480461753        0.9729038686       -0.2949826506
  H        -3.8015232630        2.0414758129       -0.2126920489
  H        -3.7845041661        0.3553646785        0.5806025880
  H        -3.8700672353        0.5115327242       -1.2758584693
 Cl        -6.0123699175        0.9965887444       -0.1986954545
 Cl        -1.5407617851        0.9423049818       -0.4095911355
       6
 i =      16, E =      -24.8056412551
  C        -3.9484488776        0.9708909607       -0.2961911373
  H        -3.8013357244        2.0427238750       -0.2125437935
  H        -3.7844600749        0.3555184287        0.5805788613
  H        -3.8701456811        0.5121070511       -1.2747833492
 Cl        -6.0122411425        0.9966282932       -0.1986724508
 Cl        -1.5406128923        0.9423018467       -0.4096066292
       6
 i =      17, E =      -24.8056751375
  C        -3.9491379436        0.9727667526       -0.2962869917
  H        -3.8014271894        2.0415583640       -0.2126206185
  H        -3.7843383139        0.3550864866        0.5810760789
  H        -3.8700422678        0.5118784911       -1.2750743567
 Cl        -6.0119658687        0.9965846236       -0.1986877625
 Cl        -1.5402834039        0.9422951145       -0.4096271788
       6
 i =      18, E =      -24.8056954224
  C        -3.9494916474        0.9709929387       -0.2957486222
  H        -3.8012746787        2.0425751774       -0.2125723477
  H        -3.7844186851        0.3556472327        0.5803742494
  H        -3.8700459386        0.5120431102       -1.2749303725
 Cl        -6.0118312174        0.9966191299       -0.1987036469
 Cl        -1.5401184911        0.9422920628       -0.4096407654
       6
 i =      19, E =      -24.8057195893
  C        -3.9499674309        0.9710200422       -0.2958479847
  H        -3.8012447604        2.0425325037       -0.2125692555
  H        -3.7843793758        0.3556316995        0.5804020210
  H        -3.8700152760        0.5120817798       -1.2748405489
 Cl        -6.0116530440        0.9966155102       -0.1987110068
 Cl        -1.5398996084        0.9422878492       -0.4096557289
       6
 i =      20, E =      -24.8057540828
  C        -3.9507004895        0.9725451591       -0.2966304900
  H        -3.8013086581        2.0416032851       -0.2125967616
  H        -3.7842211584        0.3551031936        0.5810923014
  H        -3.8699541326        0.5120566286       -1.2747017978
 Cl        -6.0113907698        0.9965792432       -0.1987108907
 Cl        -1.5395664573        0.9422816502       -0.4096757061
       6
 i =      21, E =      -24.8057641088
  C        -3.9508420184        0.9719081363       -0.2961755315
  H        -3.8012548310        2.0419547742       -0.2125929567
  H        -3.7842692761        0.3553739190        0.5807291359
  H        -3.8699438455        0.5120603935       -1.2747803998
 Cl        -6.0113344860        0.9965915596       -0.1987228543
 Cl        -1.5394948571        0.9422803476       -0.4096808492
       6
 i =      22, E =      -24.8058089696
  C        -3.9517527123        0.9703820276       -0.2952903403
  H        -3.8010899480        2.0427650886       -0.2125753120
  H        -3.7843350956        0.3559907032        0.5799166488
  H        -3.8698905944        0.5121412667       -1.2748064367
 Cl        -6.0109965718        0.9966175351       -0.1987583968
 Cl        -1.5390602376        0.9422723304       -0.4097102865
       6
 i =      23, E =      -24.8058274473
  C        -3.9520890348        0.9718435839       -0.2962816532
  H        -3.8011740698        2.0419148931       -0.2125878499
  H        -3.7841873208        0.3554054666        0.5807000029
  H        -3.8698689057        0.5121499135       -1.2745920241
 Cl        -6.0108848037        0.9965850514       -0.1987452738
 Cl        -1.5389187986        0.9422700150       -0.4097174304
       6
 i =      24, E =      -24.8058667015
  C        -3.9528513286        0.9707488103       -0.2949550886
  H        -3.8010544311        2.0424503667       -0.2126117838
  H        -3.7842818990        0.3560364811        0.5798160513
  H        -3.8697950065        0.5120671309       -1.2749436851
 Cl        -6.0105946976        0.9966029005       -0.1987887343
 Cl        -1.5385399511        0.9422631631       -0.4097412531
       6
 i =      25, E =      -24.8058842889
  C        -3.9531954422        0.9718097135       -0.2962455971
  H        -3.8011060829        2.0418557961       -0.2125916644
  H        -3.7841252828        0.3554641141        0.5806217615
  H        -3.8697984956        0.5121993862       -1.2744919658
 Cl        -6.0104876703        0.9965788870       -0.1987680451
 Cl        -1.5384032463        0.9422609419       -0.4097490343
       6
 i =      26, E =      -24.8058929551
  C        -3.9533642690        0.9718019807       -0.2962464916
  H        -3.8010955049        2.0418487235       -0.2125918474
  H        -3.7841156234        0.3554718789        0.5806119646
  H        -3.8697882193        0.5122086345       -1.2744731046
 Cl        -6.0104277323        0.9965780429       -0.1987713575
 Cl        -1.5383245635        0.9422595744       -0.4097537232
       6
 i =      27, E =      -24.8059273496
  C        -3.9540124180        0.9709977418       -0.2949814528
  H        -3.8010043625        2.0422209315       -0.2126249267
  H        -3.7842027550        0.3560155228        0.5798352950
  H        -3.8697158780        0.5120901802       -1.2748686107
 Cl        -6.0101800694        0.9965906868       -0.1988116973
 Cl        -1.5379981327        0.9422537428       -0.4097732754
       6
 i =      28, E =      -24.8059358716
  C        -3.9541676085        0.9713691626       -0.2955431718
  H        -3.8010198699        2.0420156120       -0.2126123765
  H        -3.7841372967        0.3557875223        0.5801619166
  H        -3.8697201070        0.5121616676       -1.2746515455
 Cl        -6.0101321859        0.9965820878       -0.1988025597
 Cl        -1.5379362905        0.9422527505       -0.4097769432
       6
 i =      29, E =      -24.8059729861
  C        -3.9549634401        0.9721669743       -0.2966977953
  H        -3.8010265388        2.0415373229       -0.2125900565
  H        -3.7839737262        0.3553297814        0.5808174395
  H        -3.8696983234        0.5123271014       -1.2741633482
 Cl        -6.0098647967        0.9965607812       -0.1987932377
 Cl        -1.5375851135        0.9422468235       -0.4097977490
       6
 i =      30, E =      -24.8059882911
  C        -3.9551789338        0.9714013219       -0.2955043034
  H        -3.8009627277        2.0419234580       -0.2126192294
  H        -3.7840800932        0.3558279641        0.5801042951
  H        -3.8696545765        0.5121960135       -1.2745773843
 Cl        -6.0097723918        0.9965754423       -0.1988234777
 Cl        -1.5374629465        0.9422445816       -0.4098046600
       6
 i =      31, E =      -24.8060229071
  C        -3.9559158064        0.9721128290       -0.2965923643
  H        -3.8009676451        2.0414946171       -0.2125968085
  H        -3.7839276415        0.3554071235        0.5807094406
  H        -3.8696371361        0.5123586840       -1.2741070559
 Cl        -6.0095259307        0.9965563187       -0.1988141780
 Cl        -1.5371368624        0.9422392010       -0.4098238242
       6
 i =      32, E =      -24.8060371990
  C        -3.9561187648        0.9714282636       -0.2954735046
  H        -3.8009100182        2.0418371891       -0.2126256024
  H        -3.7840265310        0.3558661942        0.5800499528
  H        -3.8695947483        0.5122306288       -1.2745028531
 Cl        -6.0094394440        0.9965694130       -0.1988426199
 Cl        -1.5370213874        0.9422370829       -0.4098301692
       6
 i =      33, E =      -24.8060404108
  C        -3.9561804056        0.9714340607       -0.2954745626
  H        -3.8009068536        2.0418294842       -0.2126260461
  H        -3.7840225522        0.3558668228        0.5800488834
  H        -3.8695909033        0.5122328472       -1.2744975180
 Cl        -6.0094179733        0.9965689428       -0.1988437592
 Cl        -1.5369922473        0.9422366144       -0.4098317919
       6
 i =      34, E =      -24.8060712468
  C        -3.9568288812        0.9720334238       -0.2964281659
  H        -3.8009094503        2.0414679515       -0.2126054390
  H        -3.7838890791        0.3555036304        0.5805726626
  H        -3.8695767354        0.5123791145       -1.2740798752
 Cl        -6.0092017798        0.9965526739       -0.1988353945
 Cl        -1.5367047047        0.9422319742       -0.4098485969
       6
 i =      35, E =      -24.8060779892
  C        -3.9569202604        0.9717620069       -0.2959682785
  H        -3.8008860067        2.0416019311       -0.2126177804
  H        -3.7839291561        0.3556904811        0.5803035663
  H        -3.8695584179        0.5123254943       -1.2742436782
 Cl        -6.0091635233        0.9965578196       -0.1988472684
 Cl        -1.5366532337        0.9422310349       -0.4098513712
       6
 i =      36, E =      -24.8061075993
  C        -3.9574659774        0.9712276140       -0.2950396654
  H        -3.8008188313        2.0418367010       -0.2126449528
  H        -3.7839884586        0.3560791535        0.5797443098
  H        -3.8694991583        0.5122331831       -1.2745395794
 Cl        -6.0089596093        0.9965658201       -0.1988781871
 Cl        -1.5363783967        0.9422262941       -0.4098667433
       6
 i =      37, E =      -24.8061199286
  C        -3.9577204067        0.9717652355       -0.2959186744
  H        -3.8008401243        2.0415392223       -0.2126237002
  H        -3.7838853198        0.3557336187        0.5802420783
  H        -3.8695077377        0.5123527513       -1.2741879795
 Cl        -6.0088816474        0.9965531259       -0.1988636499
 Cl        -1.5362751584        0.9422248115       -0.4098728944
       6
 i =      38, E =      -24.8061464058
  C        -3.9582040307        0.9712798292       -0.2950723288
  H        -3.8007798089        2.0417514427       -0.2126486961
  H        -3.7839409685        0.3560879234        0.5797320726
  H        -3.8694543570        0.5122684472       -1.2744579031
 Cl        -6.0087009393        0.9965605178       -0.1988915367
 Cl        -1.5360302119        0.9422206039       -0.4098864316
       6
 i =      39, E =      -24.8061577230
  C        -3.9584380634        0.9717574516       -0.2958557095
  H        -3.8007983476        2.0414869271       -0.2126297252
  H        -3.7838483027        0.3557804568        0.5801750896
  H        -3.8694617953        0.5123754921       -1.2741437101
 Cl        -6.0086292651        0.9965491835       -0.1988786415
 Cl        -1.5359345232        0.9422192530       -0.4098921279
       6
 i =      40, E =      -24.8061604739
  C        -3.9584905819        0.9717601729       -0.2958569420
  H        -3.8007954892        2.0414814916       -0.2126300158
  H        -3.7838450201        0.3557815320        0.5801735689
  H        -3.8694585995        0.5123778732       -1.2741383346
 Cl        -6.0086111049        0.9965488393       -0.1988795880
 Cl        -1.5359095069        0.9422188551       -0.4098935128
       6
 i =      41, E =      -24.8061830484
  C        -3.9588993673        0.9713626677       -0.2951606827
  H        -3.8007452543        2.0416540564       -0.2126507465
  H        -3.7838904559        0.3560730600        0.5797538017
  H        -3.8694138236        0.5123087963       -1.2743596094
 Cl        -6.0084589846        0.9965548752       -0.1989027352
 Cl        -1.5357023789        0.9422153080       -0.4099048540
       6
 i =      42, E =      -24.8061880216
  C        -3.9589973024        0.9715378513       -0.2954479963
  H        -3.8007514208        2.0415559930       -0.2126438612
  H        -3.7838556580        0.3559608396        0.5799155273
  H        -3.8694159042        0.5123487081       -1.2742430090
 Cl        -6.0084285491        0.9965506444       -0.1988982108
 Cl        -1.5356614249        0.9422147272       -0.4099072763
       6
 i =      43, E =      -24.8062151999
  C        -3.9595483702        0.9719398586       -0.2960846234
  H        -3.8007468517        2.0413046404       -0.2126307904
  H        -3.7837585934        0.3557225741        0.5802591288
  H        -3.8693999636        0.5124517285       -1.2739525152
 Cl        -6.0082447595        0.9965390953       -0.1988944688
 Cl        -1.5354116923        0.9422108664       -0.4099215588
       6
 i =      44, E =      -24.8062242528
  C        -3.9596843910        0.9715639867       -0.2954432855
  H        -3.8007135295        2.0414883245       -0.2126482886
  H        -3.7838150828        0.3559833791        0.5798833807
  H        -3.8693733218        0.5123773484       -1.2741798663
 Cl        -6.0081889173        0.9965462787       -0.1989112660
 Cl        -1.5353349833        0.9422094458       -0.4099255024
       6
 i =      45, E =      -24.8062473912
  C        -3.9601469317        0.9718706668       -0.2959271501
  H        -3.8007079021        2.0412922811       -0.2126387069
  H        -3.7837385251        0.3558043190        0.5801416245
  H        -3.8693588217        0.5124580518       -1.2739538884
 Cl        -6.0080343222        0.9965372453       -0.1989091826
 Cl        -1.5351237105        0.9422061991       -0.4099375249
       6
 i =      46, E =      -24.8062554778
  C        -3.9602752948        0.9715906796       -0.2954465621
  H        -3.8006814502        2.0414269739       -0.2126520225
  H        -3.7837793927        0.3560003830        0.5798591266
  H        -3.8693371253        0.5124033414       -1.2741219368
 Cl        -6.0079834982        0.9965424611       -0.1989222674
 Cl        -1.5350534497        0.9422049239       -0.4099411664
       6
 i =      47, E =      -24.8062572848
  C        -3.9603093447        0.9715900056       -0.2954429533
  H        -3.8006794464        2.0414246376       -0.2126523382
  H        -3.7837777047        0.3560028363        0.5798555943
  H        -3.8693349327        0.5124043297       -1.2741200912
 Cl        -6.0079717547        0.9965422902       -0.1989229703
 Cl        -1.5350370286        0.9422046635       -0.4099420699
