       6
 i =       0, E =      -24.7976280421
  C        -3.7709405646        0.9692904794       -0.3045229676
  H        -3.7974253809        2.0042189285       -0.2159608770
  H        -3.7812240423        0.3771775216        0.5491300748
  H        -3.8636993991        0.5280824366       -1.2408653699
 Cl        -6.1670218644        0.9985402358       -0.1912595095
 Cl        -1.5014547415        0.9419088028       -0.4113005118
       6
 i =       1, E =      -24.8012610131
  C        -3.7686133215        0.9692601661       -0.3048943742
  H        -3.8034800153        2.0581559856       -0.2111465624
  H        -3.7864021768        0.3463296245        0.5938751678
  H        -3.8731902673        0.5052815520       -1.2891548555
 Cl        -6.1400652808        0.9982071256       -0.1925479963
 Cl        -1.5382258688        0.9423397910       -0.4095797011
       6
 i =       2, E =      -24.8023434976
  C        -3.7726963398        0.9693779141       -0.3038522667
  H        -3.8066413978        2.0316679445       -0.2132985321
  H        -3.7899408899        0.3617098921        0.5718747885
  H        -3.8746986201        0.5164590757       -1.2654000520
 Cl        -6.1114013696        0.9978520320       -0.1939278607
 Cl        -1.5812286364        0.9428432895       -0.4075881242
       6
 i =       3, E =      -24.8027427580
  C        -3.7720801729        0.9692604374       -0.3059255046
  H        -3.8107273678        2.0517196085       -0.2113328214
  H        -3.7937131134        0.3498809641        0.5892511206
  H        -3.8799344563        0.5085212338       -1.2820942020
 Cl        -6.0989876233        0.9976978120       -0.1945169010
 Cl        -1.5927359514        0.9429760489       -0.4070278612
       6
 i =       4, E =      -24.8028560288
  C        -3.7732760523        0.9695186544       -0.3011890239
  H        -3.8108638455        2.0421340769       -0.2123612621
  H        -3.7939461794        0.3563281997        0.5797363051
  H        -3.8797462874        0.5114364179       -1.2761019953
 Cl        -6.0921659753        0.9976104325       -0.1948736406
 Cl        -1.6034348698        0.9430946014       -0.4066086729
       6
 i =       5, E =      -24.8028958159
  C        -3.7732811881        0.9692961258       -0.3068584545
  H        -3.8114947435        2.0451465987       -0.2118101064
  H        -3.7945809357        0.3534120134        0.5842593573
  H        -3.8802109344        0.5115845540       -1.2755275777
 Cl        -6.0898003473        0.9975807913       -0.1949644182
 Cl        -1.6055362128        0.9431208563       -0.4064276891
       6
 i =       6, E =      -24.8029131540
  C        -3.7728264847        0.9693950478       -0.3020015960
  H        -3.8118383832        2.0455009673       -0.2119868156
  H        -3.7948646665        0.3543078963        0.5827584059
  H        -3.8808778375        0.5102534034       -1.2785578646
 Cl        -6.0878807962        0.9975554105       -0.1950835959
 Cl        -1.6077977859        0.9431431182       -0.4064016813
       6
 i =       7, E =      -24.8029277881
  C        -3.7727303583        0.9693922472       -0.3030024449
  H        -3.8119628860        2.0455780116       -0.2119228904
  H        -3.7949964500        0.3540367470        0.5832096289
  H        -3.8809454923        0.5104563131       -1.2780738949
 Cl        -6.0869851144        0.9975433070       -0.1951251586
 Cl        -1.6088995365        0.9431546903       -0.4063379195
       6
 i =       8, E =      -24.8029396834
  C        -3.7724959122        0.9693780899       -0.3039037956
  H        -3.8120267777        2.0456574904       -0.2118687192
  H        -3.7950674620        0.3537917492        0.5836135806
  H        -3.8809594871        0.5106363125       -1.2776489235
 Cl        -6.0867198263        0.9975395175       -0.1951353776
 Cl        -1.6094406899        0.9431605573       -0.4063004658
       6
 i =       9, E =      -24.8030695775
  C        -3.7675377076        0.9691737882       -0.3082445371
  H        -3.8128399673        2.0462248380       -0.2115634844
  H        -3.7959006329        0.3526205023        0.5856011837
  H        -3.8815480682        0.5114279325       -1.2757690515
 Cl        -6.0846051653        0.9975074787       -0.1952368812
 Cl        -1.6162908134        0.9432345582       -0.4059360060
       6
 i =      10, E =      -24.8032083464
  C        -3.7631570673        0.9692710046       -0.3034889184
  H        -3.8130365578        2.0458233705       -0.2118240349
  H        -3.7960387720        0.3539317793        0.5834721661
  H        -3.8820498995        0.5103833746       -1.2781972327
 Cl        -6.0862697625        0.9975263302       -0.1951796203
 Cl        -1.6179118994        0.9432499794       -0.4059433259
       6
 i =      11, E =      -24.8034092452
  C        -3.7566483664        0.9691788548       -0.3077260015
  H        -3.8133633987        2.0457246283       -0.2116241818
  H        -3.7964112631        0.3530843354        0.5849142088
  H        -3.8821332908        0.5113574233       -1.2759366299
 Cl        -6.0889537391        0.9975568526       -0.1950385504
 Cl        -1.6204684250        0.9432776205       -0.4057727135
       6
 i =      12, E =      -24.8034869490
  C        -3.7543778006        0.9690832899       -0.3041584900
  H        -3.8134684467        2.0454842183       -0.2118142909
  H        -3.7964526222        0.3541247839        0.5832484072
  H        -3.8824738619        0.5106324798       -1.2776521003
 Cl        -6.0898012458        0.9975668825       -0.1950090769
 Cl        -1.6212261440        0.9432858108       -0.4058067314
       6
 i =      13, E =      -24.8035983175
  C        -3.7511174393        0.9692875389       -0.3073120182
  H        -3.8136443191        2.0453181781       -0.2116713913
  H        -3.7966985868        0.3533834022        0.5844665651
  H        -3.8824388636        0.5113104390       -1.2760430204
 Cl        -6.0911823834        0.9975807598       -0.1949359132
 Cl        -1.6224523128        0.9432937893       -0.4057090630
       6
 i =      14, E =      -24.8036225119
  C        -3.7505148678        0.9691400697       -0.3063219971
  H        -3.8136763217        2.0453302871       -0.2117175434
  H        -3.7967044574        0.3536964334        0.5839779508
  H        -3.8825343181        0.5111251749       -1.2764977232
 Cl        -6.0914115221        0.9975838095       -0.1949275704
 Cl        -1.6226575514        0.9432978928       -0.4057196027
       6
 i =      15, E =      -24.8037375966
  C        -3.7469682866        0.9688619697       -0.3035582293
  H        -3.8138629067        2.0451766890       -0.2118588751
  H        -3.7968275466        0.3546120618        0.5825515082
  H        -3.8829005800        0.5106075304       -1.2777564097
 Cl        -6.0928195907        0.9975998276       -0.1948694156
 Cl        -1.6239204820        0.9433130708       -0.4057244824
       6
 i =      16, E =      -24.8037810277
  C        -3.7460925392        0.9691931485       -0.3061722391
  H        -3.8139146518        2.0450433926       -0.2117413967
  H        -3.7969547250        0.3538923224        0.5836979901
  H        -3.8827735690        0.5111281243       -1.2764925283
 Cl        -6.0932350500        0.9976026349       -0.1948461459
 Cl        -1.6242933042        0.9433110780       -0.4056632614
       6
 i =      17, E =      -24.8038574023
  C        -3.7439714561        0.9686644635       -0.3050501987
  H        -3.8140466909        2.0451883792       -0.2117807446
  H        -3.7970335317        0.3543883087        0.5829708141
  H        -3.8829643083        0.5109888935       -1.2768955672
 Cl        -6.0941049761        0.9976132396       -0.1948090947
 Cl        -1.6250815998        0.9433266433       -0.4056556809
       6
 i =      18, E =      -24.8038914304
  C        -3.7431308560        0.9691913004       -0.3058708220
  H        -3.8140834463        2.0448586134       -0.2117658212
  H        -3.7971200569        0.3540882531        0.5834116229
  H        -3.8829634583        0.5110957512       -1.2765763441
 Cl        -6.0944735608        0.9976151703       -0.1947925081
 Cl        -1.6254142203        0.9433206254       -0.4056273997
       6
 i =      19, E =      -24.8039381508
  C        -3.7419133050        0.9691521580       -0.3060342488
  H        -3.8141567313        2.0448182667       -0.2117590174
  H        -3.7971957733        0.3541032394        0.5834053105
  H        -3.8830219470        0.5111499646       -1.2764577435
 Cl        -6.0949907134        0.9976204231       -0.1947696003
 Cl        -1.6258818101        0.9433253428       -0.4056071671
       6
 i =      20, E =      -24.8040052901
  C        -3.7401720514        0.9686207872       -0.3058042364
  H        -3.8142770724        2.0450241142       -0.2117505446
  H        -3.7972801798        0.3543550428        0.5830732833
  H        -3.8831340554        0.5111996694       -1.2764172371
 Cl        -6.0957292783        0.9976292694       -0.1947370934
 Cl        -1.6265479487        0.9433402631       -0.4055875675
       6
 i =      21, E =      -24.8040186224
  C        -3.7398359991        0.9688487426       -0.3058471378
  H        -3.8142899645        2.0448686535       -0.2117603006
  H        -3.7973082803        0.3543053957        0.5831329005
  H        -3.8831547217        0.5111788889       -1.2764361499
 Cl        -6.0958725698        0.9976300082       -0.1947313505
 Cl        -1.6266765742        0.9433374260       -0.4055814743
       6
 i =      22, E =      -24.8041033066
  C        -3.7377043084        0.9693399454       -0.3062618945
  H        -3.8144045210        2.0444624769       -0.2117688140
  H        -3.7974646498        0.3541727664        0.5833196453
  H        -3.8832606953        0.5112201869       -1.2762788803
 Cl        -6.0967899055        0.9976374750       -0.1946925285
 Cl        -1.6274992421        0.9433360778       -0.4055417381
       6
 i =      23, E =      -24.8041278893
  C        -3.7371025129        0.9688090650       -0.3061996462
  H        -3.8144591529        2.0447414907       -0.2117482596
  H        -3.7974846137        0.3543359987        0.5831193613
  H        -3.8832936108        0.5112935121       -1.2761800725
 Cl        -6.0970500557        0.9976413999       -0.1946805210
 Cl        -1.6277312404        0.9433474350       -0.4055351729
       6
 i =      24, E =      -24.8041988462
  C        -3.7353192520        0.9692777470       -0.3058215022
  H        -3.8145491799        2.0443328161       -0.2117961330
  H        -3.7975963572        0.3544009418        0.5829817876
  H        -3.8834378493        0.5111647962       -1.2764231154
 Cl        -6.0978071691        0.9976474802       -0.1946499590
 Cl        -1.6284060819        0.9433450533       -0.4055156388
       6
 i =      25, E =      -24.8042227236
  C        -3.7347775388        0.9687833185       -0.3063725704
  H        -3.8146028339        2.0446196388       -0.2117454237
  H        -3.7976330329        0.3543948993        0.5830532587
  H        -3.8834217133        0.5113640967       -1.2760243077
 Cl        -6.0980547786        0.9976510510       -0.1946378880
 Cl        -1.6286250339        0.9433558181       -0.4054976748
       6
 i =      26, E =      -24.8042365686
  C        -3.7344421288        0.9687847593       -0.3063976767
  H        -3.8146233321        2.0445981454       -0.2117453212
  H        -3.7976545063        0.3544026540        0.5830444481
  H        -3.8834406159        0.5113738977       -1.2760020930
 Cl        -6.0982005607        0.9976524457       -0.1946317408
 Cl        -1.6287535686        0.9433569176       -0.4054922327
       6
 i =      27, E =      -24.8042956391
  C        -3.7329741512        0.9691872112       -0.3058260014
  H        -3.8146950578        2.0442380939       -0.2117992158
  H        -3.7977383660        0.3545210660        0.5828234822
  H        -3.8835806128        0.5112104694       -1.2763346305
 Cl        -6.0988214291        0.9976574736       -0.1946071046
 Cl        -1.6293031087        0.9433544807       -0.4054812400
       6
 i =      28, E =      -24.8043067271
  C        -3.7327369458        0.9689878972       -0.3061432142
  H        -3.8147186297        2.0443564127       -0.2117739202
  H        -3.7977575550        0.3544949701        0.5828911754
  H        -3.8835676956        0.5113115919       -1.2761252448
 Cl        -6.0989317420        0.9976589714       -0.1946017564
 Cl        -1.6293999491        0.9433589489       -0.4054717597
       6
 i =      29, E =      -24.8043688624
  C        -3.7312850890        0.9685665313       -0.3068253861
  H        -3.8148263769        2.0445445835       -0.2117230499
  H        -3.7978570106        0.3544787208        0.5829822621
  H        -3.8835979512        0.5115412804       -1.2756479593
 Cl        -6.0995777176        0.9976660852       -0.1945731620
 Cl        -1.6299672294        0.9433715764       -0.4054374785
       6
 i =      30, E =      -24.8043898705
  C        -3.7307663452        0.9689674565       -0.3062160623
  H        -3.8148394577        2.0442432897       -0.2117759368
  H        -3.7978805011        0.3545670066        0.5827993231
  H        -3.8836837276        0.5113578639       -1.2760251081
 Cl        -6.0997886972        0.9976672833       -0.1945656617
 Cl        -1.6301524461        0.9433658751       -0.4054413374
       6
 i =      31, E =      -24.8044464593
  C        -3.7294679814        0.9685460052       -0.3069421294
  H        -3.8149388346        2.0444421653       -0.2117223646
  H        -3.7979723481        0.3545334199        0.5829169759
  H        -3.8837000575        0.5115953620       -1.2755291927
 Cl        -6.1003709919        0.9976737295       -0.1945398128
 Cl        -1.6306604895        0.9433780874       -0.4054082819
       6
 i =      32, E =      -24.8044662156
  C        -3.7289841365        0.9689491402       -0.3062879049
  H        -3.8149489796        2.0441391531       -0.2117776665
  H        -3.7979918698        0.3546316807        0.5827170836
  H        -3.8837879074        0.5114017938       -1.2759297598
 Cl        -6.1005665138        0.9976748333       -0.1945329186
 Cl        -1.6308312094        0.9433721671       -0.4054136433
       6
 i =      33, E =      -24.8044708230
  C        -3.7288777009        0.9689448307       -0.3062953052
  H        -3.8149556673        2.0441344537       -0.2117775076
  H        -3.7979985202        0.3546357826        0.5827121770
  H        -3.8837937515        0.5114057916       -1.2759213221
 Cl        -6.1006135911        0.9976752946       -0.1945309373
 Cl        -1.6308714228        0.9433726153       -0.4054119125
       6
 i =      34, E =      -24.8045198023
  C        -3.7277736910        0.9685518260       -0.3069978099
  H        -3.8150423879        2.0443271410       -0.2117259390
  H        -3.7980787333        0.3545936732        0.5828383002
  H        -3.8837996498        0.5116315552       -1.2754485929
 Cl        -6.1011120815        0.9976808230       -0.1945087826
 Cl        -1.6313039031        0.9433837475       -0.4053819933
       6
 i =      35, E =      -24.8045287906
  C        -3.7275611986        0.9687291744       -0.3066987440
  H        -3.8150465591        2.0441930606       -0.2117508880
  H        -3.7980867461        0.3546399717        0.5827453550
  H        -3.8838394577        0.5115441113       -1.2756301880
 Cl        -6.1011979688        0.9976813315       -0.1945057257
 Cl        -1.6313784959        0.9433811161       -0.4053846279
       6
 i =      36, E =      -24.8045749812
  C        -3.7264665539        0.9690609300       -0.3061592730
  H        -3.8150968692        2.0438947203       -0.2117991331
  H        -3.7981451873        0.3547535939        0.5825360106
  H        -3.8839550971        0.5113957469       -1.2759363891
 Cl        -6.1016645798        0.9976852249       -0.1944871868
 Cl        -1.6317820343        0.9433785484       -0.4053788520
       6
 i =      37, E =      -24.8045922986
  C        -3.7261137442        0.9687087528       -0.3067725742
  H        -3.8151361180        2.0441090308       -0.2117515643
  H        -3.7981776879        0.3546916918        0.5826807432
  H        -3.8839217537        0.5115853686       -1.2755407266
 Cl        -6.1018338374        0.9976874627       -0.1944790528
 Cl        -1.6319271585        0.9433864573       -0.4053616499
       6
 i =      38, E =      -24.8046328606
  C        -3.7251579454        0.9690376268       -0.3062315763
  H        -3.8151775812        2.0438212135       -0.2117993177
  H        -3.7982270658        0.3548003991        0.5824780751
  H        -3.8840296885        0.5114352485       -1.2758510422
 Cl        -6.1022407586        0.9976908341       -0.1944629343
 Cl        -1.6322772156        0.9433834415       -0.4053580311
       6
 i =      39, E =      -24.8046488010
  C        -3.7248383031        0.9686977983       -0.3068250616
  H        -3.8152144168        2.0440290775       -0.2117532804
  H        -3.7982573738        0.3547395298        0.5826193896
  H        -3.8839956192        0.5116184364       -1.2754687315
 Cl        -6.1023954053        0.9976928843       -0.1944554941
 Cl        -1.6324091266        0.9433910371       -0.4053416489
       6
 i =      40, E =      -24.8046526969
  C        -3.7247509442        0.9686954279       -0.3068316755
  H        -3.8152198219        2.0440243779       -0.2117531949
  H        -3.7982628530        0.3547425823        0.5826157624
  H        -3.8840004097        0.5116217297       -1.2754616382
 Cl        -6.1024342915        0.9976932679       -0.1944538503
 Cl        -1.6324419283        0.9433913777       -0.4053402305
       6
 i =      41, E =      -24.8046865993
  C        -3.7239584635        0.9689884055       -0.3063465944
  H        -3.8152528592        2.0437715285       -0.2117957239
  H        -3.7983028747        0.3548377406        0.5824372614
  H        -3.8840936213        0.5114865739       -1.2757412557
 Cl        -6.1027715569        0.9976960682       -0.1944404858
 Cl        -1.6327308525        0.9433884465       -0.4053380294
       6
 i =      42, E =      -24.8046934861
  C        -3.7238229833        0.9688530671       -0.3065837217
  H        -3.8152681129        2.0438535774       -0.2117773920
  H        -3.7983155352        0.3548137941        0.5824931879
  H        -3.8840803040        0.5115599024       -1.2755881700
 Cl        -6.1028369268        0.9976969111       -0.1944373823
 Cl        -1.6327863633        0.9433915111       -0.4053313498
       6
 i =      43, E =      -24.8047339417
  C        -3.7229443005        0.9685474794       -0.3071343238
  H        -3.8153372885        2.0439983182       -0.2117375124
  H        -3.7983796111        0.3547830259        0.5825886024
  H        -3.8840841886        0.5117383085       -1.2752143266
 Cl        -6.1032377424        0.9977012646       -0.1944197498
 Cl        -1.6331270800        0.9434003665       -0.4053075184
       6
 i =      44, E =      -24.8047464501
  C        -3.7226471170        0.9688330997       -0.3066486204
  H        -3.8153403335        2.0437844802       -0.2117778438
  H        -3.7983889063        0.3548570378        0.5824393058
  H        -3.8841472822        0.5115962857       -1.2755094907
 Cl        -6.1033574590        0.9977020116       -0.1944154300
 Cl        -1.6332291107        0.9433958479       -0.4053127496
       6
 i =      45, E =      -24.8047801295
  C        -3.7219228779        0.9685752524       -0.3071134179
  H        -3.8153978905        2.0439071210       -0.2117441572
  H        -3.7984420883        0.3548306342        0.5825204255
  H        -3.8841489196        0.5117468794       -1.2751939291
 Cl        -6.1036890560        0.9977056007       -0.1944008676
 Cl        -1.6335093708        0.9434032752       -0.4052928827
       6
 i =      46, E =      -24.8047914026
  C        -3.7216571259        0.9688113154       -0.3067119591
  H        -3.8154014701        2.0437287380       -0.2117775901
  H        -3.7984508803        0.3548928854        0.5823955455
  H        -3.8842025219        0.5116299155       -1.2754369814
 Cl        -6.1037971623        0.9977063209       -0.1943968913
 Cl        -1.6336010415        0.9433995877       -0.4052969526
       6
 i =      47, E =      -24.8047938360
  C        -3.7216035406        0.9688119597       -0.3067121967
  H        -3.8154046767        2.0437243484       -0.2117778410
  H        -3.7984541679        0.3548953125        0.5823921950
  H        -3.8842057808        0.5116308372       -1.2754349284
 Cl        -6.1038210911        0.9977065500       -0.1943958933
 Cl        -1.6336209455        0.9433997551       -0.4052961646
