         0        -24.815004477        -24.811604916        -24.804972209        -24.799262354        -24.797063804        -24.797628042        -24.799263796        -24.804974403        -24.811606691        -24.815004480          0.220803970          0.220803970          0.220803970          0.220803970          0.110401985          0.110401985          0.220803970          0.220803970          0.220803970
         1        -24.815004477        -24.813359484        -24.808492919        -24.803017422        -24.800660813        -24.801261013        -24.803471330        -24.808495519        -24.813360956        -24.815004480          0.250982193          0.229400203          0.225683951          0.202011968          0.138575753          0.138361460          0.200734591          0.229402763          0.250978286
         2        -24.815004477        -24.814167409        -24.809870794        -24.804306172        -24.801760421        -24.802343498        -24.805207629        -24.810029489        -24.814168502        -24.815004480          0.280168617          0.250554763          0.219083492          0.185365850          0.159624026          0.157140034          0.186011808          0.243686652          0.280151828
         3        -24.815004477        -24.814393215        -24.810399797        -24.804868703        -24.802197347        -24.802742758        -24.805813079        -24.810784128        -24.814402379        -24.815004480          0.287108343          0.268047970          0.224883201          0.189913845          0.167074328          0.168769114          0.200715874          0.255233799          0.285797717
         4        -24.815004477        -24.814512885        -24.810763231        -24.805168029        -24.802338824        -24.802856029        -24.806137990        -24.811247745        -24.814545499        -24.815004480          0.293383278          0.274577665          0.227521520          0.191288600          0.173241355          0.175437529          0.208684493          0.263985408          0.289139589
         5        -24.815004477        -24.814562394        -24.810961483        -24.805308961        -24.802391595        -24.802895816        -24.806282444        -24.811508832        -24.814599398        -24.815004480          0.296247067          0.273546174          0.230390491          0.194248440          0.176189907          0.180346628          0.213960203          0.262057597          0.290865905
         6        -24.815004477        -24.814612376        -24.811132067        -24.805447792        -24.802419447        -24.802913154        -24.806423329        -24.811696102        -24.814654190        -24.815004480          0.298553930          0.274964147          0.232322899          0.197287316          0.179779964          0.185293753          0.217364974          0.264807217          0.291923532
         7        -24.815004477        -24.814641874        -24.811241347        -24.805537310        -24.802399024        -24.802927788        -24.806506289        -24.811817973        -24.814686038        -24.815004480          0.299790130          0.274975065          0.233664111          0.206022438          0.175064866          0.188113200          0.220015253          0.265454077          0.292441894
         8        -24.815004477        -24.814655125        -24.811289018        -24.805572226        -24.802369620        -24.802939683        -24.806547654        -24.811867744        -24.814699421        -24.815004480          0.300282543          0.275134212          0.234467266          0.213423421          0.169708412          0.189084594          0.220863381          0.265820682          0.292717729
         9        -24.815004477        -24.814784104        -24.811819141        -24.805851595        -24.802219096        -24.803069577        -24.807015801        -24.812419111        -24.814828818        -24.815004480          0.307528193          0.277715898          0.247961093          0.291907461          0.116072623          0.197061914          0.231312098          0.270457081          0.297869549
        10        -24.815004477        -24.814805852        -24.811891270        -24.805754068        -24.802236793        -24.803208346        -24.807120514        -24.812502069        -24.814847163        -24.815004480          0.307454523          0.277893196          0.256010098          0.283728829          0.128283588          0.191816432          0.231891705          0.269830374          0.297783155
        11        -24.815004477        -24.814840477        -24.811993306        -24.805602502        -24.802221915        -24.803409245        -24.807347764        -24.812657667        -24.814877833        -24.815004480          0.307526855          0.279944240          0.267340487          0.272442279          0.147738464          0.186460707          0.231595856          0.269251459          0.297702245
        12        -24.815004477        -24.814856162        -24.812023446        -24.805595182        -24.802232836        -24.803486949        -24.807482913        -24.812735739        -24.814891976        -24.815004480          0.307598798          0.281828297          0.269474284          0.270468449          0.153609397          0.187206201          0.230818395          0.269030050          0.297509930
        13        -24.815004477        -24.814880245        -24.812076845        -24.805587071        -24.802224677        -24.803598318        -24.807724037        -24.812876914        -24.814914650        -24.815004480          0.307935777          0.285056708          0.272525343          0.268429408          0.162813877          0.189503073          0.229736065          0.268458614          0.297101205
        14        -24.815004477        -24.814884698        -24.812090274        -24.805595241        -24.802233841        -24.803622512        -24.807772140        -24.812907184        -24.814918996        -24.815004480          0.308026592          0.285567414          0.272892967          0.268376638          0.164226305          0.190113669          0.229650837          0.268274831          0.296940138
        15        -24.815004477        -24.814908517        -24.812160414        -24.805619782        -24.802222177        -24.803737597        -24.808059036        -24.813083984        -24.814942562        -24.815004480          0.308775158          0.288880504          0.275357949          0.268540828          0.172813803          0.194134218          0.229509181          0.267250925          0.296055629
        16        -24.815004477        -24.814915845        -24.812190734        -24.805641255        -24.802234400        -24.803781028        -24.808153971        -24.813146435        -24.814949936        -24.815004480          0.309054372          0.289640901          0.276082012          0.269050993          0.175150391          0.195661305          0.229722761          0.266843287          0.295529393
        17        -24.815004477        -24.814929272        -24.812246976        -24.805675138        -24.802231685        -24.803857402        -24.808342149        -24.813269900        -24.814963365        -24.815004480          0.309683387          0.291269765          0.277595181          0.270384203          0.179962229          0.198822790          0.230410981          0.266108881          0.294381612
        18        -24.815004477        -24.814934726        -24.812277583        -24.805695422        -24.802235336        -24.803891430        -24.808432605        -24.813323054        -24.814968636        -24.815004480          0.309937829          0.291815535          0.278235627          0.271071770          0.181931420          0.200259448          0.230642830          0.265820573          0.293743814
        19        -24.815004477        -24.814941902        -24.812315005        -24.805719589        -24.802235219        -24.803938151        -24.808549510        -24.813395438        -24.814975290        -24.815004480          0.310330551          0.292683227          0.279161635          0.272011949          0.184715031          0.202174054          0.231153301          0.265427737          0.292940741
        20        -24.815004477        -24.814951463        -24.812369475        -24.805754083        -24.802234382        -24.804005290        -24.808705761        -24.813498943        -24.814983671        -24.815004480          0.310824671          0.293833396          0.280585327          0.273554335          0.188588704          0.204815961          0.232338001          0.264879810          0.291455467
        21        -24.815004477        -24.814953251        -24.812382877        -24.805764109        -24.802235399        -24.804018622        -24.808745233        -24.813518958        -24.814985131        -24.815004480          0.310905189          0.294021295          0.280834840          0.273863047          0.189322486          0.205346695          0.232462007          0.264775881          0.291112939
        22        -24.815004477        -24.814963898        -24.812452645        -24.805808970        -24.802233938        -24.804103307        -24.808939377        -24.813643679        -24.814993159        -24.815004480          0.311465654          0.295428314          0.282712212          0.275922363          0.194075570          0.208740139          0.234100342          0.264183382          0.288965428
        23        -24.815004477        -24.814966724        -24.812477511        -24.805827447        -24.802235604        -24.804127889        -24.809009961        -24.813678312        -24.814995006        -24.815004480          0.311583187          0.295747781          0.283203395          0.276558513          0.195397028          0.209821995          0.234323248          0.264004326          0.288232691
        24        -24.815004477        -24.814974275        -24.812537861        -24.805866701        -24.802235469        -24.804198846        -24.809169430        -24.813775688        -24.814999344        -24.815004480          0.311927530          0.296859569          0.284816048          0.278359587          0.199275408          0.212592064          0.235841824          0.263500245          0.286085532
        25        -24.815004477        -24.814976555        -24.812560087        -24.805884289        -24.802235629        -24.804222724        -24.809233036        -24.813807945        -24.815000426        -24.815004480          0.312005119          0.297177581          0.285302095          0.278989988          0.200529302          0.213588086          0.236159050          0.263274830          0.285287860
        26        -24.815004477        -24.814977861        -24.812572517        -24.805892955        -24.802235632        -24.804236569        -24.809265416        -24.813826203        -24.815000985        -24.815004480          0.312025740          0.297374924          0.285619961          0.279361939          0.201268195          0.214147165          0.236425101          0.263142762          0.284753431
        27        -24.815004477        -24.814983053        -24.812623457        -24.805927350        -24.802235626        -24.804295639        -24.809398411        -24.813900896        -24.815002885        -24.815004480          0.312205443          0.298261802          0.286995141          0.280910704          0.204427126          0.216485538          0.237638702          0.262690155          0.282668718
        28        -24.815004477        -24.814983908        -24.812633744        -24.805935872        -24.802235633        -24.804306727        -24.809426927        -24.813914962        -24.815003127        -24.815004480          0.312222406          0.298397698          0.287211106          0.281193545          0.204981874          0.216910459          0.237773873          0.262570281          0.282263040
        29        -24.815004477        -24.814988588        -24.812687273        -24.805972986        -24.802235625        -24.804368862        -24.809565331        -24.813988856        -24.815004095        -24.815004480          0.312337056          0.299301588          0.288662054          0.282860754          0.208256911          0.219396424          0.238998084          0.262017602          0.279870659
        30        -24.815004477        -24.814989959        -24.812706270        -24.805988291        -24.802235634        -24.804389870        -24.809616733        -24.814013536        -24.815004242        -24.815004480          0.312344038          0.299554256          0.289100253          0.283428560          0.209317883          0.220231208          0.239283710          0.261755531          0.279022866
        31        -24.815004477        -24.814993433        -24.812754498        -24.806022907        -24.802235633        -24.804446459        -24.809740755        -24.814075717        -24.815004308        -24.815004480          0.312356207          0.300333929          0.290424270          0.284970208          0.212259931          0.222444843          0.240324154          0.261139984          0.276621447
        32        -24.815004477        -24.814994471        -24.812772346        -24.806037199        -24.802235634        -24.804466216        -24.809786228        -24.814096987        -24.815004236        -24.815004480          0.312332962          0.300551199          0.290839201          0.285507007          0.213239909          0.223196180          0.240593235          0.260856657          0.275759736
        33        -24.815004477        -24.814994708        -24.812776519        -24.806040411        -24.802235634        -24.804470823        -24.809796198        -24.814101551        -24.815004225        -24.815004480          0.312292386          0.300597273          0.290946513          0.285643073          0.213474599          0.223368196          0.240644547          0.260744922          0.275480998
        34        -24.815004477        -24.814997101        -24.812817743        -24.806071247        -24.802235634        -24.804519802        -24.809901905        -24.814151257        -24.815003849        -24.815004480          0.312220086          0.301237754          0.292082965          0.286997995          0.215985977          0.225254834          0.241458875          0.260095590          0.273213281
        35        -24.815004477        -24.814997472        -24.812826081        -24.806077989        -24.802235634        -24.804528791        -24.809921832        -24.814160128        -24.815003771        -24.815004480          0.312195906          0.301324890          0.292257715          0.287234353          0.216413607          0.225572397          0.241558278          0.259948796          0.272802479
        36        -24.815004477        -24.814999328        -24.812864737        -24.806107599        -24.802235634        -24.804574981        -24.810019909        -24.814204202        -24.815003250        -24.815004480          0.312065566          0.301896326          0.293321838          0.288526627          0.218756393          0.227329537          0.242261943          0.259213372          0.270535455
        37        -24.815004477        -24.814999917        -24.812880058        -24.806119929        -24.802235634        -24.804592299        -24.810057134        -24.814220207        -24.815003057        -24.815004480          0.311995794          0.302066571          0.293690693          0.289006381          0.219601744          0.227959714          0.242462603          0.258887184          0.269676333
        38        -24.815004477        -24.815001190        -24.812913676        -24.806146406        -24.802235634        -24.804632861        -24.810141538        -24.814256243        -24.815002555        -24.815004480          0.311813812          0.302534887          0.294615908          0.290153946          0.221639462          0.229468727          0.242998041          0.258126206          0.267561616
        39        -24.815004477        -24.815001610        -24.812927573        -24.806157723        -24.802235634        -24.804648801        -24.810174707        -24.814269730        -24.815002383        -24.815004480          0.311724651          0.302681051          0.294954241          0.290597972          0.222409925          0.230031270          0.243155211          0.257789523          0.266731188
        40        -24.815004477        -24.815001707        -24.812930912        -24.806160474        -24.802235634        -24.804652697        -24.810182533        -24.814272739        -24.815002376        -24.815004480          0.311675238          0.302711818          0.295040959          0.290713937          0.222602745          0.230164586          0.243172164          0.257657353          0.266484390
        41        -24.815004477        -24.815002507        -24.812958827        -24.806183048        -24.802235634        -24.804686599        -24.810251376        -24.814300725        -24.815002008        -24.815004480          0.311463524          0.303072884          0.295804370          0.291681401          0.224287801          0.231390737          0.243552070          0.256925907          0.264628052
        42        -24.815004477        -24.815002644        -24.812964823        -24.806188022        -24.802235634        -24.804693486        -24.810265534        -24.814306080        -24.815001950        -24.815004480          0.311414162          0.303130432          0.295943226          0.291870091          0.224611911          0.231618985          0.243601450          0.256764770          0.264259737
        43        -24.815004477        -24.815003376        -24.812997887        -24.806215200        -24.802235634        -24.804733942        -24.810346147        -24.814337651        -24.815001594        -24.815004480          0.311107976          0.303532728          0.296854087          0.293034998          0.226610651          0.233051726          0.244000397          0.255794273          0.261974263
        44        -24.815004477        -24.815003553        -24.813008642        -24.806224253        -24.802235634        -24.804746450        -24.810371227        -24.814346794        -24.815001526        -24.815004480          0.310996250          0.303624514          0.297115440          0.293389299          0.227203670          0.233469410          0.244070768          0.255461844          0.261276130
        45        -24.815004477        -24.815003963        -24.813036102        -24.806247391        -24.802235634        -24.804780129        -24.810436592        -24.814371201        -24.815001368        -24.815004480          0.310669771          0.303921365          0.297862518          0.294371093          0.228852332          0.234625817          0.244323767          0.254537633          0.259306326
        46        -24.815004477        -24.815004068        -24.813045544        -24.806255478        -24.802235634        -24.804791403        -24.810458929        -24.814378873        -24.815001351        -24.815004480          0.310545188          0.303999249          0.298100321          0.294695652          0.229387151          0.234995580          0.244361576          0.254204107          0.258654119
        47        -24.815004477        -24.815004088        -24.813047596        -24.806257285        -24.802235634        -24.804793836        -24.810463442        -24.814380337        -24.815001382        -24.815004480          0.310496390          0.304009307          0.298152938          0.294771262          0.229505020          0.235069507          0.244353708          0.254092971          0.258494742
