       6
 i =       0, E =      -24.8049744026
  C        -3.6097471701        0.9672990935       -0.3121223961
  H        -3.7657198686        2.0038184037       -0.2174647840
  H        -3.7495844342        0.3767583433        0.5476306586
  H        -3.8318648934        0.5276731140       -1.2423553754
 Cl        -6.1956827996        0.9988970368       -0.1899039090
 Cl        -1.5301085853        0.9422615813       -0.4099538457
       6
 i =       1, E =      -24.8084955186
  C        -3.6030677859        0.9672579328       -0.3126451475
  H        -3.7855346414        2.0439236125       -0.2131798812
  H        -3.7687204421        0.3541116794        0.5814840248
  H        -3.8542410463        0.5109925368       -1.2773739166
 Cl        -6.1788287178        0.9986852424       -0.1907128850
 Cl        -1.5772615387        0.9428080451       -0.4077345335
       6
 i =       2, E =      -24.8100294886
  C        -3.6091893079        0.9672975394       -0.3117598186
  H        -3.7938827508        2.0296427339       -0.2140490448
  H        -3.7771946817        0.3626152809        0.5697440468
  H        -3.8617599777        0.5171634218       -1.2641540339
 Cl        -6.1666762051        0.9985301057       -0.1913017991
 Cl        -1.6313677037        0.9434433961       -0.4052254731
       6
 i =       3, E =      -24.8107841276
  C        -3.5996783218        0.9673783772       -0.3134518709
  H        -3.8063654532        2.0329661707       -0.2131376265
  H        -3.7897192666        0.3605544771        0.5735714312
  H        -3.8743124166        0.5161975177       -1.2658771357
 Cl        -6.1637112657        0.9984900562       -0.1914594060
 Cl        -1.6450790217        0.9435952232       -0.4045613712
       6
 i =       4, E =      -24.8112477446
  C        -3.5929454216        0.9667810481       -0.3113642942
  H        -3.8125701210        2.0354743936       -0.2127553224
  H        -3.7956138905        0.3600977969        0.5745383241
  H        -3.8809268782        0.5149002741       -1.2686685046
 Cl        -6.1656878070        0.9985082021       -0.1913644622
 Cl        -1.6575797542        0.9437538382       -0.4040535685
       6
 i =       5, E =      -24.8115088319
  C        -3.5913193771        0.9675029478       -0.3137680479
  H        -3.8136816010        2.0299672878       -0.2130494764
  H        -3.7971100233        0.3623136236        0.5715091861
  H        -3.8814800387        0.5175139026       -1.2629080919
 Cl        -6.1681097639        0.9985395259       -0.1912689496
 Cl        -1.6627233314        0.9437930521       -0.4037531469
       6
 i =       6, E =      -24.8116961024
  C        -3.5881801088        0.9667083234       -0.3127584046
  H        -3.8160978880        2.0307614064       -0.2129295213
  H        -3.7992851832        0.3626078924        0.5712256913
  H        -3.8839738464        0.5172604759       -1.2635303497
 Cl        -6.1701869708        0.9985589589       -0.1911692869
 Cl        -1.6657564755        0.9438475155       -0.4036494265
       6
 i =       7, E =      -24.8118179734
  C        -3.5864653222        0.9668587810       -0.3129518140
  H        -3.8170899255        2.0298580819       -0.2129522676
  H        -3.8003284508        0.3630221445        0.5706934526
  H        -3.8849233623        0.5176233412       -1.2627164348
 Cl        -6.1718619277        0.9985790787       -0.1910947507
 Cl        -1.6676698067        0.9438644258       -0.4035602938
       6
 i =       8, E =      -24.8118677443
  C        -3.5856476175        0.9670024098       -0.3130918437
  H        -3.8175258305        2.0296475940       -0.2129435923
  H        -3.8008026734        0.3630405890        0.5706937740
  H        -3.8853597811        0.5176836884       -1.2625589568
 Cl        -6.1725553751        0.9985877802       -0.1910645665
 Cl        -1.6683523217        0.9438678181       -0.4035270647
       6
 i =       9, E =      -24.8124191115
  C        -3.5759508527        0.9675395611       -0.3145166057
  H        -3.8225064635        2.0274870393       -0.2128353845
  H        -3.8060024955        0.3637855561        0.5699822706
  H        -3.8901739460        0.5186661803       -1.2602589494
 Cl        -6.1809953916        0.9986871538       -0.1906938221
 Cl        -1.6761807585        0.9439364167       -0.4031523770
       6
 i =      10, E =      -24.8125020695
  C        -3.5745911191        0.9667014941       -0.3138037927
  H        -3.8227369884        2.0271112961       -0.2128925250
  H        -3.8060140343        0.3646587300        0.5687505887
  H        -3.8903369087        0.5189801990       -1.2597059606
 Cl        -6.1828101572        0.9987031910       -0.1906054296
 Cl        -1.6764482949        0.9439612201       -0.4031645553
       6
 i =      11, E =      -24.8126576674
  C        -3.5714860686        0.9673994194       -0.3136135711
  H        -3.8230281456        2.0257909626       -0.2129974514
  H        -3.8064379600        0.3650827985        0.5681103764
  H        -3.8907589475        0.5191751124       -1.2592226939
 Cl        -6.1862023442        0.9987466725       -0.1904499652
 Cl        -1.6769207993        0.9439450897       -0.4031588902
       6
 i =      12, E =      -24.8127357390
  C        -3.5698089110        0.9666719885       -0.3143503326
  H        -3.8232755566        2.0259529081       -0.2129415686
  H        -3.8066024579        0.3652466375        0.5679681287
  H        -3.8907567701        0.5195489316       -1.2584670321
 Cl        -6.1878083460        0.9987606850       -0.1903805545
 Cl        -1.6771900612        0.9439665716       -0.4031321619
       6
 i =      13, E =      -24.8128769136
  C        -3.5665551187        0.9672276462       -0.3134543459
  H        -3.8234126310        2.0248670098       -0.2130698018
  H        -3.8067771314        0.3657789514        0.5671296192
  H        -3.8911376019        0.5195327153       -1.2584825976
 Cl        -6.1907723334        0.9987985185       -0.1902385942
 Cl        -1.6776601530        0.9439538909       -0.4031466235
       6
 i =      14, E =      -24.8129071845
  C        -3.5658924314        0.9670234479       -0.3138838838
  H        -3.8234759949        2.0248513583       -0.2130495023
  H        -3.8068381570        0.3658084970        0.5671241709
  H        -3.8910879346        0.5197126819       -1.2581016243
 Cl        -6.1913955384        0.9988044245       -0.1902124368
 Cl        -1.6777292088        0.9439596380       -0.4031341476
       6
 i =      15, E =      -24.8130839841
  C        -3.5616998172        0.9663861062       -0.3152319609
  H        -3.8237613383        2.0243099385       -0.2130252670
  H        -3.8071160476        0.3661930463        0.5666899035
  H        -3.8910203850        0.5204552373       -1.2565273763
 Cl        -6.1952785537        0.9988454642       -0.1900399994
 Cl        -1.6781277945        0.9439776300       -0.4030951420
       6
 i =      16, E =      -24.8131464351
  C        -3.5601435229        0.9668700695       -0.3141828805
  H        -3.8237260984        2.0236093183       -0.2131351676
  H        -3.8070879282        0.3665697275        0.5660614315
  H        -3.8912515391        0.5202906939       -1.2568747489
 Cl        -6.1966933017        0.9988652277       -0.1899664948
 Cl        -1.6781826750        0.9439634089       -0.4031281547
       6
 i =      17, E =      -24.8132698996
  C        -3.5570743509        0.9666386449       -0.3149187378
  H        -3.8238292187        2.0230360005       -0.2131486565
  H        -3.8072192597        0.3668745498        0.5656769174
  H        -3.8911624564        0.5207551023       -1.2558802695
 Cl        -6.1996604414        0.9988983746       -0.1898320788
 Cl        -1.6782640709        0.9439673470       -0.4031173054
       6
 i =      18, E =      -24.8133230544
  C        -3.5557120079        0.9667191666       -0.3147562862
  H        -3.8238273212        2.0226475214       -0.2131900197
  H        -3.8072155314        0.3670957626        0.5653435935
  H        -3.8912125646        0.5208294491       -1.2557216319
 Cl        -6.2009981949        0.9989146873       -0.1897671665
 Cl        -1.6782664844        0.9439637135       -0.4031275675
       6
 i =      19, E =      -24.8133954378
  C        -3.5538185365        0.9667177553       -0.3147031239
  H        -3.8238480804        2.0221849730       -0.2132326859
  H        -3.8072353028        0.3673833420        0.5649257245
  H        -3.8912329213        0.5209863651       -1.2553916779
 Cl        -6.2028568831        0.9989364807       -0.1896792604
 Cl        -1.6782777348        0.9439618555       -0.4031362925
       6
 i =      20, E =      -24.8134989435
  C        -3.5510743369        0.9666913386       -0.3147460333
  H        -3.8238567997        2.0215162529       -0.2132903496
  H        -3.8072546672        0.3677843751        0.5643487281
  H        -3.8912003457        0.5212506408       -1.2548334244
 Cl        -6.2056708905        0.9989692386       -0.1895477785
 Cl        -1.6782160256        0.9439589711       -0.4031482883
       6
 i =      21, E =      -24.8135189579
  C        -3.5505487582        0.9666645333       -0.3149352446
  H        -3.8238577747        2.0214051039       -0.2132914367
  H        -3.8072652308        0.3678217172        0.5643057318
  H        -3.8911680518        0.5213447939       -1.2546281417
 Cl        -6.2062387433        0.9989757440       -0.1895219889
 Cl        -1.6781921171        0.9439588947       -0.4031461786
       6
 i =      22, E =      -24.8136436787
  C        -3.5471358869        0.9666048050       -0.3151509793
  H        -3.8238396484        2.0205810175       -0.2133556902
  H        -3.8072548835        0.3682936339        0.5636351498
  H        -3.8910993532        0.5217176642       -1.2538355655
 Cl        -6.2098920475        0.9990182528       -0.1893510273
 Cl        -1.6780316555        0.9439551967       -0.4031599578
       6
 i =      23, E =      -24.8136783122
  C        -3.5461607945        0.9666457963       -0.3148948287
  H        -3.8238175681        2.0202932674       -0.2133942518
  H        -3.8072263789        0.3684989820        0.5633211597
  H        -3.8911096236        0.5217491034       -1.2537776114
 Cl        -6.2109720257        0.9990311099       -0.1892994276
 Cl        -1.6779592088        0.9439522117       -0.4031734820
       6
 i =      24, E =      -24.8137756879
  C        -3.5434153783        0.9665115680       -0.3159108301
  H        -3.8237927842        2.0196988825       -0.2134020694
  H        -3.8072665586        0.3686909651        0.5630995575
  H        -3.8908810572        0.5222510520       -1.2526834705
 Cl        -6.2141223462        0.9990670498       -0.1891580728
 Cl        -1.6777445054        0.9439506635       -0.4031646401
       6
 i =      25, E =      -24.8138079446
  C        -3.5424600085        0.9665810754       -0.3149842288
  H        -3.8237510523        2.0193704991       -0.2134758403
  H        -3.8071622351        0.3690600103        0.5625119456
  H        -3.8909960248        0.5221316838       -1.2529721115
 Cl        -6.2151897556        0.9990800245       -0.1891026581
 Cl        -1.6776561892        0.9439467950       -0.4031969796
       6
 i =      26, E =      -24.8138262035
  C        -3.5419371895        0.9665952593       -0.3150024361
  H        -3.8237317766        2.0192217288       -0.2134890564
  H        -3.8071489181        0.3691349805        0.5624021994
  H        -3.8909730385        0.5221853567       -1.2528567381
 Cl        -6.2158270170        0.9990875436       -0.1890730970
 Cl        -1.6775931577        0.9439451666       -0.4032009411
       6
 i =      27, E =      -24.8139008957
  C        -3.5397572976        0.9664924098       -0.3161615207
  H        -3.8236904954        2.0187493560       -0.2134800813
  H        -3.8071932494        0.3692025040        0.5623653507
  H        -3.8907075635        0.5226646069       -1.2518016470
 Cl        -6.2184921432        0.9991178916       -0.1889560359
 Cl        -1.6773529632        0.9439430480       -0.4031869553
       6
 i =      28, E =      -24.8139149616
  C        -3.5393401513        0.9665068904       -0.3156834384
  H        -3.8236692492        2.0186118734       -0.2135153071
  H        -3.8071337136        0.3693865677        0.5620726063
  H        -3.8907660973        0.5225990843       -1.2519608848
 Cl        -6.2189761621        0.9991236676       -0.1889305015
 Cl        -1.6773055807        0.9439416981       -0.4032034942
       6
 i =      29, E =      -24.8139888562
  C        -3.5370278532        0.9665666125       -0.3147585662
  H        -3.8235633344        2.0179176374       -0.2136242899
  H        -3.8069641780        0.3699758323        0.5611629024
  H        -3.8908108352        0.5226181824       -1.2519589182
 Cl        -6.2217979630        0.9991569965       -0.1887934165
 Cl        -1.6770108332        0.9439343190       -0.4032494840
       6
 i =      30, E =      -24.8140135358
  C        -3.5363435964        0.9665033216       -0.3158221399
  H        -3.8235503163        2.0178101792       -0.2135859136
  H        -3.8070351047        0.3698272955        0.5614336981
  H        -3.8906030163        0.5229271750       -1.2512638554
 Cl        -6.2227324533        0.9991673913       -0.1887567053
 Cl        -1.6769060868        0.9439341618       -0.4032270649
       6
 i =      31, E =      -24.8140757167
  C        -3.5343348191        0.9664402132       -0.3149391916
  H        -3.8234518586        2.0172708256       -0.2136793671
  H        -3.8068479891        0.3703871632        0.5605759630
  H        -3.8906293725        0.5229439940       -1.2512765848
 Cl        -6.2252914901        0.9991968308       -0.1886322088
 Cl        -1.6766033541        0.9439303501       -0.4032711433
       6
 i =      32, E =      -24.8140969871
  C        -3.5337287667        0.9665052192       -0.3159077738
  H        -3.8234175484        2.0171003894       -0.2136511927
  H        -3.8069170240        0.3702227940        0.5608565533
  H        -3.8904402921        0.5232070341       -1.2506707140
 Cl        -6.2261556957        0.9992071998       -0.1885983282
 Cl        -1.6764962609        0.9439266989       -0.4032512327
       6
 i =      33, E =      -24.8141015508
  C        -3.5335930991        0.9664993203       -0.3159275646
  H        -3.8234060259        2.0170659589       -0.2136538835
  H        -3.8069064453        0.3702416890        0.5608298198
  H        -3.8904232599        0.5232264749       -1.2506295543
 Cl        -6.2263627785        0.9992095550       -0.1885888983
 Cl        -1.6764637018        0.9439263338       -0.4032526201
       6
 i =      34, E =      -24.8141512569
  C        -3.5319374835        0.9663406090       -0.3151871582
  H        -3.8233237517        2.0166854781       -0.2137263597
  H        -3.8067263897        0.3707304689        0.5600886182
  H        -3.8904261251        0.5232529223       -1.2506246671
 Cl        -6.2285451964        0.9992339503       -0.1884829207
 Cl        -1.6761883543        0.9439258022       -0.4032905914
       6
 i =      35, E =      -24.8141601284
  C        -3.5316818577        0.9664168803       -0.3155577806
  H        -3.8232997146        2.0165816382       -0.2137192087
  H        -3.8067532643        0.3706602138        0.5602031589
  H        -3.8903525670        0.5233488867       -1.2503978845
 Cl        -6.2289209818        0.9992387587       -0.1884679262
 Cl        -1.6761377414        0.9439228384       -0.4032834933
       6
 i =      36, E =      -24.8142042024
  C        -3.5302561943        0.9665161937       -0.3163858528
  H        -3.8231957966        2.0161545204       -0.2137232543
  H        -3.8067501462        0.3706588356        0.5602347018
  H        -3.8901185048        0.5236613207       -1.2496922670
 Cl        -6.2309618590        0.9992629776       -0.1883788216
 Cl        -1.6758573311        0.9439152886       -0.4032779373
       6
 i =      37, E =      -24.8142202069
  C        -3.5297070111        0.9663686398       -0.3157015676
  H        -3.8231703378        2.0160696139       -0.2137641489
  H        -3.8066308350        0.3709545499        0.5597787250
  H        -3.8901777187        0.5235880995       -1.2498930050
 Cl        -6.2316966981        0.9992706041       -0.1883403739
 Cl        -1.6757552802        0.9439176049       -0.4033031529
       6
 i =      38, E =      -24.8142562431
  C        -3.5285135561        0.9665506877       -0.3163044917
  H        -3.8230576770        2.0156502708       -0.2137777333
  H        -3.8066159923        0.3709529226        0.5597943291
  H        -3.8899912172        0.5238148259       -1.2493707262
 Cl        -6.2334544006        0.9992920399       -0.1882631119
 Cl        -1.6755005424        0.9439083085       -0.4033020014
       6
 i =      39, E =      -24.8142697299
  C        -3.5280442783        0.9663293033       -0.3158395641
  H        -3.8230450827        2.0156378869       -0.2138019688
  H        -3.8065139726        0.3711977153        0.5594279835
  H        -3.8900110486        0.5237930605       -1.2494599235
 Cl        -6.2341130283        0.9992982886       -0.1882296544
 Cl        -1.6754044916        0.9439127819       -0.4033206781
       6
 i =      40, E =      -24.8142727388
  C        -3.5279467375        0.9663277433       -0.3158410572
  H        -3.8230340462        2.0156114819       -0.2138047286
  H        -3.8065030008        0.3712136702        0.5594044061
  H        -3.8899989360        0.5238036571       -1.2494378534
 Cl        -6.2342705002        0.9993000856       -0.1882224443
 Cl        -1.6753785132        0.9439123965       -0.4033221358
       6
 i =      41, E =      -24.8143007249
  C        -3.5269935566        0.9665568239       -0.3162078757
  H        -3.8229244252        2.0152235716       -0.2138258975
  H        -3.8064787903        0.3712214788        0.5593922210
  H        -3.8898673411        0.5239466260       -1.2490985885
 Cl        -6.2356976358        0.9993179666       -0.1881590840
 Cl        -1.6751668798        0.9439025284       -0.4033247349
       6
 i =      42, E =      -24.8143060796
  C        -3.5268082283        0.9664402028       -0.3160938175
  H        -3.8229224209        2.0152381789       -0.2138305925
  H        -3.8064416955        0.3713074070        0.5592683702
  H        -3.8898600590        0.5239577691       -1.2490918109
 Cl        -6.2359702795        0.9993203799       -0.1881457665
 Cl        -1.6751254103        0.9439050508       -0.4033303679
       6
 i =      43, E =      -24.8143376513
  C        -3.5256901520        0.9661961412       -0.3158210401
  H        -3.8228497402        2.0150642668       -0.2138631471
  H        -3.8062940948        0.3716146785        0.5588188190
  H        -3.8897780877        0.5240482330       -1.2489386555
 Cl        -6.2376442980        0.9993381295       -0.1880669006
 Cl        -1.6748684793        0.9439074987       -0.4033532136
       6
 i =      44, E =      -24.8143467945
  C        -3.5253840785        0.9664325720       -0.3161128607
  H        -3.8227892787        2.0148474680       -0.2138703157
  H        -3.8063125890        0.3715356505        0.5589312594
  H        -3.8897140511        0.5241083392       -1.2487761781
 Cl        -6.2381326028        0.9993452102       -0.1880464130
 Cl        -1.6747914157        0.9438996972       -0.4033496692
       6
 i =      45, E =      -24.8143712010
  C        -3.5245141395        0.9661770433       -0.3160237814
  H        -3.8227344941        2.0147566469       -0.2138863293
  H        -3.8061966015        0.3717579482        0.5586156472
  H        -3.8896169814        0.5242150022       -1.2485812511
 Cl        -6.2394824635        0.9993590717       -0.1879838174
 Cl        -1.6745770825        0.9439031964       -0.4033647518
       6
 i =      46, E =      -24.8143788734
  C        -3.5242445731        0.9664195181       -0.3161309530
  H        -3.8226732050        2.0145397750       -0.2139019094
  H        -3.8061980533        0.3717186680        0.5586609914
  H        -3.8895858998        0.5242300798       -1.2485216951
 Cl        -6.2399112839        0.9993654963       -0.1879649119
 Cl        -1.6745080959        0.9438953632       -0.4033658365
       6
 i =      47, E =      -24.8143803369
  C        -3.5241945927        0.9664210518       -0.3161314169
  H        -3.8226659595        2.0145250245       -0.2139034930
  H        -3.8061912921        0.3717262531        0.5586495354
  H        -3.8895786300        0.5242350157       -1.2485112404
 Cl        -6.2399972781        0.9993664701       -0.1879610141
 Cl        -1.6744932857        0.9438950843       -0.4033666890
