#     Step Nr.          Time[fs]        Kin.[a.u.]          Temp[K]            Pot.[a.u.]        Cons Qty[a.u.]        UsedTime[s]
         0            0.000000         0.015200714       800.000000000       -24.722125047       -24.705657607         0.000000000
         1            0.500000         0.015588612       820.414720702       -24.722552545       -24.705653399         0.082445044
         2            1.000000         0.016062799       845.370787342       -24.723067993       -24.705649565         0.029034711
         3            1.500000         0.016681465       877.930604016       -24.723731183       -24.705647352         0.029145600
         4            2.000000         0.017479365       919.923372451       -24.724577899       -24.705647283         0.029400880
         5            2.500000         0.018458246       971.441003188       -24.725610483       -24.705649379         0.027290472
         6            3.000000         0.019585117      1030.747240989       -24.726796321       -24.705653463         0.027398376
         7            3.500000         0.020794236      1094.382067343       -24.728069931       -24.705659361         0.027301073
         8            4.000000         0.021990082      1157.318413959       -24.729335815       -24.705666869         0.027466794
         9            4.500000         0.023051820      1213.196736664       -24.730472556       -24.705675487         0.027593140
        10            5.000000         0.023842760      1254.823202346       -24.731341874       -24.705684089         0.027343992
        11            5.500000         0.024228972      1275.149193346       -24.731807085       -24.705690825         0.027248915
        12            6.000000         0.024107823      1268.773240646       -24.731762027       -24.705693482         0.029182900
        13            6.500000         0.023440539      1233.654650121       -24.731164577       -24.705690333         0.029114841
        14            7.000000         0.022276554      1172.395159260       -24.730062188       -24.705681085         0.029282989
        15            7.500000         0.020756378      1092.389643468       -24.728595538       -24.705667375         0.029083543
        16            8.000000         0.019086706      1004.516298255       -24.726973523       -24.705652366         0.029212776
        17            8.500000         0.017493739       920.679891324       -24.725425593       -24.705639587         0.029241991
        18            9.000000         0.016171258       851.078904839       -24.724148525       -24.705631618         0.029192929
        19            9.500000         0.015242298       802.188554958       -24.723267137       -24.705629285         0.029057954
        20           10.000000         0.014746227       776.080796192       -24.722821140       -24.705631674         0.031814117
        21           10.500000         0.014651387       771.089433639       -24.722778205       -24.705636815         0.031181446
        22           11.000000         0.014883745       783.318211894       -24.723063331       -24.705642589         0.029158443
        23           11.500000         0.015358381       808.297903529       -24.723590964       -24.705647441         0.029373418
        24           12.000000         0.016003046       842.226010557       -24.724288861       -24.705650699         0.029158585
        25           12.500000         0.016768821       882.528087357       -24.725108730       -24.705652486         0.029093703
        26           13.000000         0.017628934       927.795052814       -24.726024762       -24.705653372         0.029030362
        27           13.500000         0.018570674       977.357986849       -24.727025207       -24.705653969         0.029983033
        28           14.000000         0.019586378      1030.813592826       -24.728103086       -24.705654636         0.029110855
        29           14.500000         0.020667714      1087.723356730       -24.729250437       -24.705655421         0.029307323
        30           15.000000         0.021804213      1147.536286335       -24.730457005       -24.705656233         0.029203409
        31           15.500000         0.022983665      1209.609775004       -24.731710934       -24.705657134         0.027253041
        32           16.000000         0.024190241      1273.110792938       -24.732997116       -24.705658582         0.027168424
        33           16.500000         0.025397196      1336.631770752       -24.734289866       -24.705661428         0.027494375
        34           17.000000         0.026554688      1397.549544673       -24.735540325       -24.705666556         0.026770044
        35           17.500000         0.027578105      1451.411051785       -24.736664070       -24.705674283         0.027017020
        36           18.000000         0.028345497      1491.798211434       -24.737537843       -24.705683799         0.027289291
        37           18.500000         0.028711637      1511.067848678       -24.738013335       -24.705693027         0.027181515
        38           19.000000         0.028540026      1502.036096820       -24.737949618       -24.705699126         0.027196325
        39           19.500000         0.027745110      1460.200401332       -24.737256452       -24.705699508         0.027563798
        40           20.000000         0.026329807      1385.714250625       -24.735933139       -24.705692942         0.028215460
        41           20.500000         0.024402651      1284.289761536       -24.734086654       -24.705680169         0.029710362
        42           21.000000         0.022165838      1166.568267774       -24.731919918       -24.705663718         0.027505146
        43           21.500000         0.019876895      1046.103275693       -24.729692924       -24.705647017         0.027280363
        44           22.000000         0.017796844       936.632044111       -24.727669926       -24.705633258         0.027257952
        45           22.500000         0.016141505       849.512986210       -24.726069817       -24.705624513         0.027192307
        46           23.000000         0.015049102       792.020790670       -24.725033208       -24.705621423         0.027145911
        47           23.500000         0.014569337       766.771223235       -24.724611389       -24.705623424         0.027110513
        48           24.000000         0.014671195       772.131909115       -24.724774307       -24.705629251         0.027042186
        49           24.500000         0.015262309       803.241728702       -24.725430148       -24.705637428         0.027175026
        50           25.000000         0.016212553       853.252196904       -24.726449017       -24.705646558         0.026870253
        51           25.500000         0.017377140       914.543375968       -24.727686014       -24.705655384         0.027099092
        52           26.000000         0.018617614       979.828442953       -24.729002159       -24.705662758         0.027191826
        53           26.500000         0.019820583      1043.139595233       -24.730283216       -24.705667666         0.027012780
        54           27.000000         0.020913263      1100.646365167       -24.731455551       -24.705669427         0.027472706
        55           27.500000         0.021872724      1151.141963640       -24.732495871       -24.705668035         0.027062213
        56           28.000000         0.022724150      1195.951740430       -24.733429949       -24.705664434         0.027385020
        57           28.500000         0.023524626      1238.080081024       -24.734316539       -24.705660495         0.027127216
        58           29.000000         0.024333640      1280.657778494       -24.735217463       -24.705658531         0.027494756
        59           29.500000         0.025178039      1325.097740452       -24.736161663       -24.705660438         0.026849193
        60           30.000000         0.026024237      1369.632382869       -24.737116347       -24.705666816         0.027190634
        61           30.500000         0.026770420      1408.903341639       -24.737978471       -24.705676505         0.029758243
        62           31.000000         0.027265024      1434.933915288       -24.738593223       -24.705686852         0.026527037
        63           31.500000         0.027347186      1439.257990053       -24.738795250       -24.705694643         0.026624931
        64           32.000000         0.026895282      1415.474677497       -24.738458410       -24.705697292         0.026441346
        65           32.500000         0.025866037      1361.306462528       -24.737536029       -24.705693787         0.022412163
        66           33.000000         0.024311148      1279.474056055       -24.736077998       -24.705684794         0.026111485
        67           33.500000         0.022367394      1177.175996353       -24.734220918       -24.705672292         0.026184653
        68           34.000000         0.020226546      1064.505097550       -24.732157645       -24.705658859         0.026133447
        69           34.500000         0.018097207       952.439878431       -24.730098411       -24.705646757         0.025868098
        70           35.000000         0.016169619       850.992649440       -24.728235257       -24.705637517         0.027576610
        71           35.500000         0.014590754       767.898368450       -24.726716946       -24.705631883         0.027141794
        72           36.000000         0.013451425       707.936490465       -24.725636021       -24.705629974         0.027017860
        73           36.500000         0.012783524       672.785464341       -24.725025987       -24.705631489         0.026804118
        74           37.000000         0.012564508       661.258852045       -24.724865666       -24.705635839         0.026804808
        75           37.500000         0.012727176       669.819909844       -24.725088770       -24.705642166         0.026398838
        76           38.000000         0.013174100       693.341144146       -24.725598146       -24.705649315         0.026108772
        77           38.500000         0.013796514       726.098235267       -24.726284625       -24.705655891         0.026394127
        78           39.000000         0.014496345       762.929720081       -24.727049267       -24.705660473         0.025750337
        79           39.500000         0.015207746       800.370090682       -24.727825386       -24.705662008         0.025596558
        80           40.000000         0.015912070       837.438076585       -24.728594166       -24.705660284         0.025949651
        81           40.500000         0.016639608       875.727707437       -24.729386905       -24.705656243         0.029397864
        82           41.000000         0.017453968       918.586775237       -24.730269509       -24.705651907         0.024997381
        83           41.500000         0.018420984       969.479955801       -24.731310884       -24.705649786         0.024200815
        84           42.000000         0.019571174      1030.013427202       -24.732544406       -24.705651951         0.024526587
        85           42.500000         0.020869744      1098.356033436       -24.733936789       -24.705659109         0.022820721
        86           43.000000         0.022207329      1168.751903264       -24.735378085       -24.705670155         0.022767028
        87           43.500000         0.023417506      1232.442434480       -24.736699202       -24.705682471         0.024223096
        88           44.000000         0.024316475      1279.754375397       -24.737712322       -24.705692852         0.022424215
        89           44.500000         0.024751118      1302.629260602       -24.738260096       -24.705698643         0.018979590
        90           45.000000         0.024638645      1296.709892564       -24.738256334       -24.705698605         0.023534361
        91           45.500000         0.023985481      1262.334446330       -24.737705430       -24.705693121         0.022100804
        92           46.000000         0.022881772      1204.247257450       -24.736696873       -24.705683818         0.022221846
        93           46.500000         0.021476851      1130.307500816       -24.735380367       -24.705672881         0.025088362
        94           47.000000         0.019945832      1049.731335911       -24.733931976       -24.705662373         0.022051213
        95           47.500000         0.018457380       971.395427695       -24.732521558       -24.705653825         0.023834846
        96           48.000000         0.017149221       902.548215147       -24.731288095       -24.705648115         0.021252722
        97           48.500000         0.016113707       848.050033328       -24.730325166       -24.705645539         0.023204532
        98           49.000000         0.015392756       810.107019048       -24.729675794       -24.705645938         0.024402633
        99           49.500000         0.014980529       788.411891182       -24.729334973       -24.705648774         0.023543258
       100           50.000000         0.014832620       780.627583884       -24.729258661       -24.705653139         0.023188200
       101           50.500000         0.014881180       783.183208724       -24.729378785       -24.705657777         0.027270607
       102           51.000000         0.015055043       792.333470444       -24.729623454       -24.705661239         0.020416349
       103           51.500000         0.015302048       805.333113064       -24.729939671       -24.705662241         0.022574187
       104           52.000000         0.015607897       821.429707875       -24.730312843       -24.705660181         0.022409456
       105           52.500000         0.016003978       842.275077972       -24.730775261       -24.705655620         0.022023741
       106           53.000000         0.016557731       871.418634372       -24.731396775       -24.705650393         0.021784603
       107           53.500000         0.017344702       912.836210474       -24.732256468       -24.705647136         0.022640791
       108           54.000000         0.018409721       968.887217484       -24.733402805       -24.705648297         0.024378028
       109           54.500000         0.019731877      1038.471099794       -24.734817286       -24.705655019         0.024736031
       110           55.000000         0.021209176      1116.219999383       -24.736398100       -24.705666464         0.020108551
       111           55.500000         0.022672047      1193.209632110       -24.737973484       -24.705679995         0.023520315
       112           56.000000         0.023922731      1259.031999911       -24.739341861       -24.705692166         0.023635502
       113           56.500000         0.024786211      1304.476199191       -24.740324031       -24.705700014         0.022112418
       114           57.000000         0.025153845      1323.824405301       -24.740807962       -24.705702059         0.022109452
       115           57.500000         0.025005195      1316.001131284       -24.740771236       -24.705698593         0.024166109
       116           58.000000         0.024403825      1284.351519215       -24.740276794       -24.705691248         0.024969921
       117           58.500000         0.023472878      1235.356629600       -24.739448081       -24.705682213         0.024178141
       118           59.000000         0.022361755      1176.879196310       -24.738435215       -24.705673505         0.023103972
       119           59.500000         0.021214556      1116.503155381       -24.737383123       -24.705666579         0.021826580
       120           60.000000         0.020146679      1060.301750024       -24.736408011       -24.705662257         0.018011931
       121           60.500000         0.019231261      1012.124132039       -24.735583751       -24.705660830         0.026863459
       122           61.000000         0.018494441       973.345933383       -24.734937040       -24.705662151         0.020335058
       123           61.500000         0.017918133       943.015350646       -24.734449984       -24.705665670         0.024114051
       124           62.000000         0.017449902       918.372763038       -24.734069738       -24.705670384         0.022855806
       125           62.500000         0.017020038       895.749394408       -24.733725466       -24.705674856         0.023664005
       126           63.000000         0.016564926       871.797260319       -24.733351872       -24.705677396         0.021366905
       127           63.500000         0.016053088       844.859692504       -24.732915767       -24.705676512         0.020755228
       128           64.000000         0.015506772       816.107586413       -24.732438496       -24.705671542         0.022547506
       129           64.500000         0.015009727       789.948534516       -24.732004578       -24.705663241         0.018614484
       130           65.000000         0.014693271       773.293740597       -24.731748196       -24.705653955         0.022606546
       131           65.500000         0.014699247       773.608240843       -24.731815757       -24.705647084         0.023925357
       132           66.000000         0.015128584       796.203862739       -24.732313209       -24.705645912         0.020725711
       133           66.500000         0.015993210       841.708375193       -24.733256266       -24.705652224         0.020567995
       134           67.000000         0.017191315       904.763556192       -24.734544298       -24.705665391         0.020608071
       135           67.500000         0.018518789       974.627333677       -24.735971309       -24.705682412         0.020345407
       136           68.000000         0.019715659      1037.617554063       -24.737273017       -24.705698917         0.022278089
       137           68.500000         0.020532257      1080.594358708       -24.738194436       -24.705710697         0.016581771
       138           69.000000         0.020792552      1094.293467232       -24.738554806       -24.705715137         0.014667433
       139           69.500000         0.020434995      1075.475557516       -24.738289284       -24.705711645         0.024083594
       140           70.000000         0.019520325      1027.337270985       -24.737457258       -24.705701625         0.024731863
       141           70.500000         0.018208730       958.309221736       -24.736219462       -24.705687900         0.023868780
       142           71.000000         0.016718107       879.859081000       -24.734795440       -24.705673534         0.016720392
       143           71.500000         0.015276400       803.983295675       -24.733415411       -24.705661176         0.022297706
       144           72.000000         0.014079815       741.008079745       -24.732278066       -24.705652676         0.022284924
       145           72.500000         0.013263390       698.040407861       -24.731520810       -24.705648983         0.016598532
       146           73.000000         0.012885831       678.169808942       -24.731204342       -24.705650221         0.023493575
       147           73.500000         0.012927835       680.380419682       -24.731310729       -24.705655796         0.024744737
       148           74.000000         0.013302269       700.086528755       -24.731753332       -24.705664489         0.017654678
       149           74.500000         0.013874666       730.211270069       -24.732397101       -24.705674516         0.021353483
       150           75.000000         0.014492460       762.725246089       -24.733087798       -24.705683654         0.020785023
       151           75.500000         0.015020263       790.503068785       -24.733687576       -24.705689539         0.020313717
       152           76.000000         0.015375892       809.219460761       -24.734111715       -24.705690217         0.016173604
       153           76.500000         0.015558453       818.827510970       -24.734357757       -24.705684886         0.020209691
       154           77.000000         0.015657537       824.042184639       -24.734515765       -24.705674591         0.020166380
       155           77.500000         0.015834236       833.341690027       -24.734749915       -24.705662426         0.020286856
       156           78.000000         0.016272412       856.402539491       -24.735249315       -24.705652887         0.020139932
       157           78.500000         0.017111101       900.541972449       -24.736158852       -24.705650357         0.020463607
       158           79.000000         0.018380822       967.366249477       -24.737513324       -24.705657257         0.020149499
       159           79.500000         0.019970336      1051.020992393       -24.739202380       -24.705672779         0.022183062
       160           80.000000         0.021641363      1138.965653636       -24.740984709       -24.705692923         0.016436227
       161           80.500000         0.023089584      1215.184225019       -24.742550059       -24.705711955         0.024330187
       162           81.000000         0.024030505      1264.704068187       -24.743607027       -24.705724451         0.019315271
       163           81.500000         0.024278218      1277.740939224       -24.743964186       -24.705727448         0.020952358
       164           82.000000         0.023791467      1252.123688778       -24.743577108       -24.705720900         0.019638598
       165           82.500000         0.022675016      1193.365849002       -24.742549901       -24.705707220         0.023399688
       166           83.000000         0.021142676      1112.720193845       -24.741097766       -24.705690219         0.018708950
       167           83.500000         0.019459275      1024.124261907       -24.739488051       -24.705673800         0.022301464
       168           84.000000         0.017880445       941.031881555       -24.737979333       -24.705661118         0.016611206
       169           84.500000         0.016604164       873.862343439       -24.736772256       -24.705654019         0.023905150
       170           85.000000         0.015740470       828.406892446       -24.735979079       -24.705653187         0.032950021
       171           85.500000         0.015300839       805.269515357       -24.735612707       -24.705658229         0.022634327
       172           86.000000         0.015205111       800.231441943       -24.735593346       -24.705667834         0.023515256
       173           86.500000         0.015303548       805.412090577       -24.735770319       -24.705679887         0.017616787
       174           87.000000         0.015411627       811.100193935       -24.735956786       -24.705691629         0.023819047
       175           87.500000         0.015354296       808.082899575       -24.735974271       -24.705699972         0.020418284
       176           88.000000         0.015013805       790.163189780       -24.735701252       -24.705702116         0.020195505
       177           88.500000         0.014371194       756.343128939       -24.735115867       -24.705696425         0.020371968
       178           89.000000         0.013528100       711.971831149       -24.734319117       -24.705683343         0.020118590
       179           89.500000         0.012696098       668.184288784       -24.733525169       -24.705665866         0.021237944
       180           90.000000         0.012147988       639.337747640       -24.733012569       -24.705649113         0.020472385
       181           90.500000         0.012139063       638.868033892       -24.733044095       -24.705638832         0.026074096
       182           91.000000         0.012821195       674.768079677       -24.733778489       -24.705639323         0.016513162
       183           91.500000         0.014180511       746.307649075       -24.735205770       -24.705651655         0.024120994
       184           92.000000         0.016024102       843.334212150       -24.737132676       -24.705673083         0.024740108
       185           92.500000         0.018023456       948.558438241       -24.739226405       -24.705697987         0.018056294
       186           93.000000         0.019800090      1042.061058281       -24.741101964       -24.705719942         0.018403627
       187           93.500000         0.021023719      1106.459553810       -24.742422311       -24.705733692         0.014268331
       188           94.000000         0.021490448      1131.023085634       -24.742978435       -24.705736716         0.019636103
       189           94.500000         0.021159883      1113.625779099       -24.742727460       -24.705729663         0.019465784
       190           95.000000         0.020147234      1060.330963796       -24.741784440       -24.705715407         0.021115053
       191           95.500000         0.018680170       983.120660691       -24.740378557       -24.705697834         0.024078895
       192           96.000000         0.017038476       896.719819445       -24.738792067       -24.705680759         0.024693341
       193           96.500000         0.015493847       815.427355526       -24.737299485       -24.705667221         0.017875312
       194           97.000000         0.014261544       750.572348293       -24.736118815       -24.705659163         0.021112829
       195           97.500000         0.013469152       708.869477293       -24.735379983       -24.705657431         0.020971684
       196           98.000000         0.013143094       691.709294638       -24.735111081       -24.705661883         0.016493857
       197           98.500000         0.013211489       695.308887955       -24.735240915       -24.705671496         0.016355645
       198           99.000000         0.013521673       711.633595682       -24.735616234       -24.705684432         0.022494578
       199           99.500000         0.013870876       730.011833952       -24.736032244       -24.705698122         0.016496422
       200          100.000000         0.014048046       739.336139770       -24.736274548       -24.705709477         0.023990838
       201          100.500000         0.013882640       730.630968716       -24.736168471       -24.705715359         0.021266789
       202          101.000000         0.013292449       699.569746695       -24.735627926       -24.705713355         0.018979669
       203          101.500000         0.012318343       648.303385173       -24.734691533       -24.705702748         0.018833064
       204          102.000000         0.011131850       585.859320279       -24.733531469       -24.705685294         0.016439835
       205          102.500000         0.010005074       526.558094741       -24.732423897       -24.705665311         0.023972926
       206          103.000000         0.009243238       486.463385616       -24.731680759       -24.705648692         0.026603983
       207          103.500000         0.009095696       478.698369800       -24.731558766       -24.705640966         0.017620724
       208          104.000000         0.009674186       509.143798036       -24.732175131       -24.705645170         0.022478635
       209          104.500000         0.010909277       574.145521430       -24.733462108       -24.705660534         0.023852983
       210          105.000000         0.012563537       661.207733975       -24.735179764       -24.705682691         0.021083663
       211          105.500000         0.014297846       752.482902776       -24.736983516       -24.705705334         0.019416059
       212          106.000000         0.015766466       829.775050247       -24.738521321       -24.705722497         0.019047707
       213          106.500000         0.016707268       879.288612584       -24.739525936       -24.705730428         0.016359745
       214          107.000000         0.016999225       894.654043364       -24.739873576       -24.705728379         0.023982884
       215          107.500000         0.016674883       877.584216158       -24.739596521       -24.705718244         0.021451446
       216          108.000000         0.015892432       836.404505505       -24.738854590       -24.705703492         0.019223057
       217          108.500000         0.014882919       783.274725911       -24.737881488       -24.705687960         0.018852239
       218          109.000000         0.013890657       731.052909581       -24.736924467       -24.705674949         0.016397884
       219          109.500000         0.013120996       690.546303633       -24.736191576       -24.705666761         0.023956305
       220          110.000000         0.012703338       668.565330672       -24.735814362       -24.705664578         0.021791575
       221          110.500000         0.012672023       666.917283764       -24.735828506       -24.705668514         0.024935847
       222          111.000000         0.012964710       682.321129712       -24.736171966       -24.705677707         0.022852428
       223          111.500000         0.013436942       707.174271948       -24.736699333       -24.705690389         0.016576191
       224          112.000000         0.013891372       731.090527849       -24.737210952       -24.705703992         0.023769423
       225          112.500000         0.014119268       743.084457571       -24.737494587       -24.705715403         0.025094294
       226          113.000000         0.013949576       734.153736463       -24.737375047       -24.705721471         0.022285233
       227          113.500000         0.013297039       699.811326521       -24.736763307       -24.705719807         0.021809579