 DBCSR| CPU Multiplication driver                                           XSMM
 DBCSR| Multrec recursion limit                                              512
 DBCSR| Multiplication stack size                                           1000
 DBCSR| Maximum elements for images                                    UNLIMITED
 DBCSR| Multiplicative factor virtual images                                   1
 DBCSR| Use multiplication densification                                       T
 DBCSR| Multiplication size stacks                                             3
 DBCSR| Use memory pool for CPU allocation                                     F
 DBCSR| Number of 3D layers                                               SINGLE
 DBCSR| Use MPI memory allocation                                              F
 DBCSR| Use RMA algorithm                                                      F
 DBCSR| Use Communication thread                                               T
 DBCSR| Communication thread load                                             87
 DBCSR| MPI: My node id                                                        0
 DBCSR| MPI: Number of nodes                                                 256
 DBCSR| OMP: Current number of threads                                         1
 DBCSR| OMP: Max number of threads                                             1
 DBCSR| Split modifier for TAS multiplication algorithm                  1.0E+00


  **** **** ******  **  PROGRAM STARTED AT               2023-04-23 12:22:18.703
 ***** ** ***  *** **   PROGRAM STARTED ON                             nid001080
 **    ****   ******    PROGRAM STARTED BY                              dpassero
 ***** **    ** ** **   PROGRAM PROCESS ID                                 54811
  **** **  *******  **  PROGRAM STARTED IN /scratch/e1000/dpassero/MMM_2023/jbac
                                           hmann/ethane/full/energy

 CP2K| version string:                 CP2K version 2022.1 (Development Version)
 CP2K| source code revision number:                                  git:4ddb46c
 CP2K| cp2kflags: omp libint fftw3 libxc elpa parallel mpi3 scalapack xsmm max_c
 CP2K|            ontr=4 plumed2 spglib
 CP2K| is freely available from                            https://www.cp2k.org/
 CP2K| Program compiled at                      Wed 14 Sep 2022 12:18:41 PM CEST
 CP2K| Program compiled on                                             nid001080
 CP2K| Program compiled for                                 Eiger-gfortran_May22
 CP2K| Data directory path         /users/mmi/DEV/CP2K/trunk_new/eiger/cp2k/data
 CP2K| Input file name        /scratch/e1000/dpassero/MMM_2023/jbachmann/ethane/

 GLOBAL| Force Environment number                                              1
 GLOBAL| Basis set file name                                        BASIS_MOLOPT
 GLOBAL| Potential file name                                           POTENTIAL
 GLOBAL| MM Potential file name                                     MM_POTENTIAL
 GLOBAL| Coordinate file name                                   final_config.xyz
 GLOBAL| Method name                                                        CP2K
 GLOBAL| Project name                                                      final
 GLOBAL| Run type                                                         ENERGY
 GLOBAL| FFT library                                                       FFTW3
 GLOBAL| Diagonalization library                                            ELPA
 GLOBAL| DGEMM library                                                      BLAS
 GLOBAL| Minimum number of eigenvectors for ELPA usage                        16
 GLOBAL| Orthonormality check for eigenvectors                          DISABLED
 GLOBAL| Matrix multiplication library                                 ScaLAPACK
 GLOBAL| All-to-all communication in single precision                          F
 GLOBAL| FFTs using library dependent lengths                                  T
 GLOBAL| Grid backend                                                       AUTO
 GLOBAL| Global print level                                                  LOW
 GLOBAL| MPI I/O enabled                                                       T
 GLOBAL| Total number of message passing processes                           256
 GLOBAL| Number of threads for this process                                    1
 GLOBAL| This output is from process                                           0
 GLOBAL| Stack size for threads created by OpenMP (OMP_STACKSIZE)           100M
 GLOBAL| CPU model name                          AMD EPYC 7742 64-Core Processor
 GLOBAL| CPUID                                                              1002

 MEMORY| system memory details [Kb]
 MEMORY|                        rank 0           min           max       average
 MEMORY| MemTotal            263506204     263506204     263506204     263506204
 MEMORY| MemFree             234431696     233763864     234431696     234097780
 MEMORY| Buffers                 36488         32912         36488         34700
 MEMORY| Cached                2052156       2052156       2157088       2104622
 MEMORY| Slab                  7226708       7226708       7360488       7293598
 MEMORY| SReclaimable           135904        135904        226500        181202
 MEMORY| MemLikelyFree       236656244     236180364     236656248     236418304


 GENERATE|  Preliminary Number of Bonds generated:                             0
 GENERATE|  Achieved consistency in connectivity generation.

 *******************************************************************************
 *******************************************************************************
 **                                                                           **
 **     #####                         ##              ##                      **
 **    ##   ##            ##          ##              ##                      **
 **   ##     ##                       ##            ######                    **
 **   ##     ##  ##   ##  ##   #####  ##  ##   ####   ##    #####    #####    **
 **   ##     ##  ##   ##  ##  ##      ## ##   ##      ##   ##   ##  ##   ##   **
 **   ##  ## ##  ##   ##  ##  ##      ####     ###    ##   ######   ######    **
 **    ##  ###   ##   ##  ##  ##      ## ##      ##   ##   ##       ##        **
 **     #######   #####   ##   #####  ##  ##  ####    ##    #####   ##        **
 **           ##                                                    ##        **
 **                                                                           **
 **                                                ... make the atoms dance   **
 **                                                                           **
 **            Copyright (C) by CP2K developers group (2000-2022)             **
 **                      J. Chem. Phys. 152, 194103 (2020)                    **
 **                                                                           **
 *******************************************************************************


 TOTAL NUMBERS AND MAXIMUM NUMBERS

  Total number of            - Atomic kinds:                                   2
                             - Atoms:                                          8
                             - Shell sets:                                     8
                             - Shells:                                        28
                             - Primitive Cartesian functions:                 56
                             - Cartesian basis functions:                     58
                             - Spherical basis functions:                     56

  Maximum angular momentum of- Orbital basis functions:                        2
                             - Local part of the GTH pseudopotential:          2
                             - Non-local part of the GTH pseudopotential:      0


 SCF PARAMETERS         Density guess:                                   RESTART
                        --------------------------------------------------------
                        max_scf:                                              30
                        max_scf_history:                                       0
                        max_diis:                                              4
                        --------------------------------------------------------
                        eps_scf:                                        1.00E-06
                        eps_scf_history:                                0.00E+00
                        eps_diis:                                       1.00E-01
                        eps_eigval:                                     1.00E-05
                        --------------------------------------------------------
                        level_shift [a.u.]:                             0.000000
                        --------------------------------------------------------
                        Outer loop SCF in use 
                        No variables optimised in outer loop
                        eps_scf                                         1.00E-06
                        max_scf                                               20
                        No outer loop optimization
                        step_size                                       5.00E-01

 Number of electrons:                                                         14
 Number of occupied orbitals:                                                  7
 Number of molecular orbitals:                                                 7

 Number of orbital functions:                                                 56
 Number of independent orbital functions:                                     56

 Extrapolation method: initial_guess

 *** WARNING in qs_initial_guess.F:310 :: User requested to restart the    ***
 *** wavefunction from the file named: final-RESTART.wfn. This file does   ***
 *** not exist. Please check the existence of the file or change properly  ***
 *** the value of the keyword WFN_RESTART_FILE_NAME. Calculation continues ***
 *** using ATOMIC GUESS.                                                   ***



 SCF WAVEFUNCTION OPTIMIZATION

  ----------------------------------- OT ---------------------------------------
  Minimizer      : DIIS                : direct inversion
                                         in the iterative subspace
                                         using   7 DIIS vectors
                                         safer DIIS on
  Preconditioner : FULL_KINETIC        : inversion of T + eS
  Precond_solver : DEFAULT
  stepsize       :    0.15000000                  energy_gap     :    0.20000000
  eps_taylor     :   0.10000E-15                  max_taylor     :             4
  ----------------------------------- OT ---------------------------------------

  Step     Update method      Time    Convergence         Total energy    Change
  ------------------------------------------------------------------------------
     1 OT DIIS     0.15E+00    0.8     0.10975793       -13.8332369731 -1.38E+01
     2 OT DIIS     0.15E+00    1.0     0.07138901       -14.3872320680 -5.54E-01
     3 OT DIIS     0.15E+00    1.0     0.05007064       -14.7550552401 -3.68E-01
     4 OT DIIS     0.15E+00    1.0     0.02685374       -15.0572861163 -3.02E-01
     5 OT DIIS     0.15E+00    1.0     0.01553334       -15.1466935411 -8.94E-02
     6 OT DIIS     0.15E+00    1.0     0.00846408       -15.1852087834 -3.85E-02
     7 OT DIIS     0.15E+00    1.0     0.00495354       -15.1928287583 -7.62E-03
     8 OT DIIS     0.15E+00    3.0     0.00278984       -15.1960320829 -3.20E-03
     9 OT DIIS     0.15E+00    1.0     0.00148785       -15.1971909711 -1.16E-03
    10 OT DIIS     0.15E+00    1.0     0.00078969       -15.1975167756 -3.26E-04
    11 OT DIIS     0.15E+00    1.0     0.00039507       -15.1976127428 -9.60E-05
    12 OT DIIS     0.15E+00    1.0     0.00022295       -15.1976349408 -2.22E-05
    13 OT DIIS     0.15E+00    1.0     0.00010239       -15.1976420335 -7.09E-06
    14 OT DIIS     0.15E+00    1.0     0.00004217       -15.1976434316 -1.40E-06
    15 OT DIIS     0.15E+00    1.0     0.00002659       -15.1976435983 -1.67E-07
    16 OT DIIS     0.15E+00    1.0     0.00001302       -15.1976436896 -9.13E-08
    17 OT DIIS     0.15E+00    1.0     0.00000745       -15.1976437132 -2.36E-08
    18 OT DIIS     0.15E+00    1.0     0.00000451       -15.1976437212 -7.99E-09
    19 OT DIIS     0.15E+00    1.0     0.00000310       -15.1976437235 -2.26E-09
    20 OT DIIS     0.15E+00    1.0     0.00000194       -15.1976437247 -1.25E-09
    21 OT DIIS     0.15E+00    1.0     0.00000123       -15.1976437252 -5.31E-10
    22 OT DIIS     0.15E+00    1.0     0.00000062       -15.1976437255 -2.75E-10

  *** SCF run converged in    22 steps ***


  Electronic density on regular grids:        -14.0000000022       -0.0000000022
  Core density on regular grids:               14.0000000001        0.0000000001
  Total charge density on r-space grids:       -0.0000000021
  Total charge density g-space grids:          -0.0000000021

  Overlap energy of the core charge distribution:               0.00000178044017
  Self energy of the core charge distribution:                -35.13285960674677
  Core Hamiltonian energy:                                     11.56639369690846
  Hartree energy:                                              14.31639125439561
  Exchange-correlation energy:                                 -6.05105789175170
  Dispersion energy:                                            0.10348704123788

  Total energy:                                               -15.19764372551636

  outer SCF iter =    1 RMS gradient =   0.62E-06 energy =        -15.1976437255
  outer SCF loop converged in   1 iterations or   22 steps


 ENERGY| Total FORCE_EVAL ( QS ) energy [a.u.]:              -15.197643725516365

 -------------------------------------------------------------------------------
 -                                                                             -
 -                                DBCSR STATISTICS                             -
 -                                                                             -
 -------------------------------------------------------------------------------
 COUNTER                                    TOTAL       BLAS       SMM       ACC
 flops     5 x    13 x     7               125580       0.0%    100.0%      0.0%
 flops    13 x     5 x     7               125580       0.0%    100.0%      0.0%
 flops     7 x     7 x     7               131712       0.0%    100.0%      0.0%
 flops    13 x    13 x     7               163254       0.0%    100.0%      0.0%
 flops     5 x     5 x     7               169050       0.0%    100.0%      0.0%
 flops     7 x     7 x    13               221676       0.0%    100.0%      0.0%
 flops     7 x     7 x     5               255780       0.0%    100.0%      0.0%
 flops    13 x     7 x     7               277732       0.0%    100.0%      0.0%
 flops     5 x     7 x     7               320460       0.0%    100.0%      0.0%
 flops    13 x     7 x    13               671944       0.0%    100.0%      0.0%
 flops    13 x     7 x     5               775320       0.0%    100.0%      0.0%
 flops     5 x     7 x    13               775320       0.0%    100.0%      0.0%
 flops     5 x     7 x     5               894600       0.0%    100.0%      0.0%
 flops inhomo. stacks                           0       0.0%      0.0%      0.0%
 flops total                         4.908008E+06       0.0%    100.0%      0.0%
 flops max/rank                      1.526084E+06       0.0%    100.0%      0.0%
 matmuls inhomo. stacks                         0       0.0%      0.0%      0.0%
 matmuls total                               7132       0.0%    100.0%      0.0%
 number of processed stacks                  7132       0.0%    100.0%      0.0%
 average stack size                                     0.0       1.0       0.0
 marketing flops                     5.339824E+06
 -------------------------------------------------------------------------------
 # multiplications                            483
 max memory usage/rank             305.700864E+06
 # max total images/rank                        1
 # max 3D layers                                1
 # MPI messages exchanged                 3709440
 MPI messages size (bytes):
  total size                        48.433560E+06
  min size                           0.000000E+00
  max size                           1.352000E+03
  average size                      13.056839E+00
 MPI breakdown and total messages size (bytes):
             size <=      128             3585885                        0
       128 < size <=     8192              123555                 48433560
      8192 < size <=    32768                   0                        0
     32768 < size <=   131072                   0                        0
    131072 < size <=  4194304                   0                        0
   4194304 < size <= 16777216                   0                        0
  16777216 < size                               0                        0
 -------------------------------------------------------------------------------
 -                                                                             -
 -                      DBCSR MESSAGE PASSING PERFORMANCE                      -
 -                                                                             -
 -------------------------------------------------------------------------------
 ROUTINE             CALLS      AVE VOLUME [Bytes]
 MP_Bcast               14                     12.
 MP_Allreduce         2629                      8.
 MP_Alltoall          1709                  72997.
 MP_ISend            30908                    105.
 MP_IRecv            30908                     90.
 -------------------------------------------------------------------------------

 -------------------------------------------------------------------------------
 -                                                                             -
 -                                DBM STATISTICS                               -
 -                                                                             -
 -------------------------------------------------------------------------------
    M  x    N  x    K                                          COUNT     PERCENT
 -------------------------------------------------------------------------------

 -------------------------------------------------------------------------------
 -                                                                             -
 -                                GRID STATISTICS                              -
 -                                                                             -
 -------------------------------------------------------------------------------
 LP    KERNEL             BACKEND                              COUNT     PERCENT
 2     collocate general  REF                                  36754      29.53%
 2     integrate general  REF                                  35156      28.25%
 3     collocate general  REF                                  20999      16.87%
 3     integrate general  REF                                  20086      16.14%
 4     collocate general  REF                                   4807       3.86%
 4     integrate general  REF                                   4598       3.69%
 0     collocate general  REF                                   2048       1.65%
 -------------------------------------------------------------------------------

 MEMORY| Estimated peak process memory [MiB]                                 292

 -------------------------------------------------------------------------------
 -                                                                             -
 -                         MESSAGE PASSING PERFORMANCE                         -
 -                                                                             -
 -------------------------------------------------------------------------------

 ROUTINE             CALLS      AVE VOLUME [Bytes]
 MP_Group                5
 MP_Bcast              448                 836513.
 MP_Allreduce         1446                   1887.
 MP_Sync               409
 MP_Alltoall          3023              289368170.
 MP_ISendRecv        34425                   6789.
 MP_Wait             37101
 MP_comm_split          22
 MP_ISend             8388                  95165.
 MP_IRecv             8654                  92330.
 MP_Recv                 6                    448.
 -------------------------------------------------------------------------------


 -------------------------------------------------------------------------------
 -                                                                             -
 -                           R E F E R E N C E S                               -
 -                                                                             -
 -------------------------------------------------------------------------------
 
 CP2K version 2022.1 (Development Version), the CP2K developers group (2022).
 CP2K is freely available from https://www.cp2k.org/ .

 Kuehne,Thomas D.; Iannuzzi,Marcella; Del Ben,Mauro;
 Rybkin,Vladimir V.; Seewald,Patrick; Stein,Frederick; Laino,Teodoro;
 Khaliullin,Rustam Z.; Schuett,Ole; Schiffmann,Florian; Golze,Dorothea;
 Wilhelm,Jan; Chulkov,Sergey; Bani-Hashemian,Mohammad Hossein;
 Weber,Valery; Borstnik,Urban; Taillefumier,Mathieu;
 Jakobovits,Alice Shoshana; Lazzaro,Alfio; Pabst,Hans; Mueller,Tiziano;
 Schade,Robert; Guidon,Manuel; Andermatt,Samuel; Holmberg,Nico;
 Schenter,Gregory K.; Hehn,Anna; Bussy,Augustin; Belleflamme,Fabian;
 Tabacchi,Gloria; Gloess,Andreas; Lass,Michael; Bethune,Iain;
 Mundy,Christopher J.; Plessl,Christian; Watkins,Matt;
 VandeVondele,Joost; Krack,Matthias; Hutter,Juerg. 
 The Journal of Chemical Physics, 152 (19), (2020). 
 CP2K: An electronic structure and molecular dynamics software package -
 Quickstep: Efficient and accurate electronic structure calculations.
 https://doi.org/10.1063/5.0007045

 Lehtola, S; Steigemann, C; Oliveira, MJT; Marques, MAL. 
 SoftwareX, 7, 1-5 (2018). 
 Recent developments in libxc - A comprehensive library of functionals
 for density functional theory.
 https://doi.org/10.1016/j.softx.2017.11.002

 Schuett, Ole; Messmer, Peter; Hutter, Juerg; VandeVondele, Joost. 
 Electronic Structure Calculations on Graphics Processing Units, John
 Wiley & Sons, Ltd, 173-190 (2016). 
 GPU-Accelerated Sparse Matrix-Matrix Multiplication for
 Linear Scaling Density Functional Theory.
 https://doi.org/10.1002/9781118670712.ch8

 Heinecke, A; Henry, G; Hutchinson, M; Pabst, H. 
 Proceedings of Intl. Supercomputing Conference, 981-991 (2016). 
 LIBXSMM: Accelerating Small Matrix Multiplications
 by Runtime Code Generation.
 https://doi.org/10.1109/SC.2016.83

 Borstnik, U; VandeVondele, J; Weber, V; Hutter, J. 
 PARALLEL COMPUTING, 40 (5-6), 47-58 (2014). 
 Sparse matrix multiplication: The distributed block-compressed sparse
 row library.
 https://doi.org/10.1016/j.parco.2014.03.012

 Hutter, J; Iannuzzi, M; Schiffmann, F; VandeVondele, J. 
 WIREs Comput Mol Sci., 4 (1), 15-25 (2014). 
 CP2K: atomistic simulations of condensed matter systems.
 https://doi.org/10.1002/wcms.1159

 Marek, A; Blum, V; Johanni, R; Havu, V; Lang, B; Auckenthaler, T;
 Heinecke, A; Bungartz, H; Lederer, H. 
 Journal of Physics: Condensed Matter, 26 (21), (2014). 
 The ELPA library: scalable parallel eigenvalue solutions for
 electronic structure
 theory and computational science.
 https://doi.org/10.1088/0953-8984/26/21/213201

 Marques, MAL; Oliveira, MJT; Burnus, T. 
 COMPUTER PHYSICS COMMUNICATIONS, 183 (10), 2272-2281 (2012). 
 LIBXC: A library of exchange and correlation functionals for density
 functional theory.
 https://doi.org/10.1016/j.cpc.2012.05.007

 Wellendorff, J; Lundgaard, K; Mogelhoj, A; Petzold, V; Landis, D;
 Norskov, J; Bligaard, T; Jacobsen, K. 
 PHYSICAL REVIEW B, 85 (23), 235149 (2012). 
 Density functionals for surface science: Exchange-correlation model development with Bayesian error estimation.
 https://doi.org/10.1103/PhysRevB.85.235149

 Roman-Perez, G; Soler, JM. 
 Phys. Rev. Lett., 103 (9), 096102 (2009). 
 Efficient Implementation of a van der Waals Density Functional:
 Application to Double-Wall Carbon Nanotubes.
 https://doi.org/10.1103/PhysRevLett.103.096102

 VandeVondele, J; Hutter, J. 
 JOURNAL OF CHEMICAL PHYSICS, 127 (11), 114105 (2007). 
 Gaussian basis sets for accurate calculations on molecular systems in
 gas and condensed phases.
 https://doi.org/10.1063/1.2770708

 Krack, M. 
 THEORETICAL CHEMISTRY ACCOUNTS, 114 (1-3), 145-152 (2005). 
 Pseudopotentials for H to Kr optimized for gradient-corrected
 exchange-correlation functionals.
 https://doi.org/10.1007/s00214-005-0655-y

 VandeVondele, J; Krack, M; Mohamed, F; Parrinello, M; Chassaing, T;
 Hutter, J. COMPUTER PHYSICS COMMUNICATIONS, 167 (2), 103-128 (2005). 
 QUICKSTEP: Fast and accurate density functional calculations using a
 mixed Gaussian and plane waves approach.
 https://doi.org/10.1016/j.cpc.2004.12.014

 Frigo, M; Johnson, SG. 
 PROCEEDINGS OF THE IEEE, 93 (2), 216-231 (2005). 
 The design and implementation of FFTW3.
 https://doi.org/10.1109/JPROC.2004.840301

 Dion, M; Rydberg, H; Schroder, E; Langreth, DC; Lundqvist, BI. 
 Phys. Rev. Lett., 92 (24), 246401 (2004). 
 Van der Waals density functional for general geometries.
 https://doi.org/10.1103/PhysRevLett.92.246401

 VandeVondele, J; Hutter, J. 
 JOURNAL OF CHEMICAL PHYSICS, 118 (10), 4365-4369 (2003). 
 An efficient orbital transformation method for electronic structure
 calculations.
 https://doi.org/10.1063/1.1543154

 Hartwigsen, C; Goedecker, S; Hutter, J. 
 PHYSICAL REVIEW B, 58 (7), 3641-3662 (1998). 
 Relativistic separable dual-space Gaussian pseudopotentials from H to Rn.
 https://doi.org/10.1103/PhysRevB.58.3641

 Lippert, G; Hutter, J; Parrinello, M. 
 MOLECULAR PHYSICS, 92 (3), 477-487 (1997). 
 A hybrid Gaussian and plane wave density functional scheme.
 https://doi.org/10.1080/002689797170220

 Perdew, JP; Burke, K; Ernzerhof, M. 
 PHYSICAL REVIEW LETTERS, 77 (18), 3865-3868 (1996). 
 Generalized gradient approximation made simple.
 https://doi.org/10.1103/PhysRevLett.77.3865

 Goedecker, S; Teter, M; Hutter, J. 
 PHYSICAL REVIEW B, 54 (3), 1703-1710 (1996). 
 Separable dual-space Gaussian pseudopotentials.
 https://doi.org/10.1103/PhysRevB.54.1703


 -------------------------------------------------------------------------------
 -                                                                             -
 -                                T I M I N G                                  -
 -                                                                             -
 -------------------------------------------------------------------------------
 SUBROUTINE                       CALLS  ASD         SELF TIME        TOTAL TIME
                                MAXIMUM       AVERAGE  MAXIMUM  AVERAGE  MAXIMUM
 CP2K                                 1  1.0    0.014    0.040   24.290   24.291
 qs_energies                          1  2.0    0.000    0.001   23.505   23.506
 scf_env_do_scf                       1  3.0    0.000    0.000   23.168   23.169
 scf_env_do_scf_inner_loop           22  4.0    0.002    0.003   22.356   22.357
 qs_ks_update_qs_env                 23  5.0    0.000    0.000   19.085   19.087
 rebuild_ks_matrix                   22  6.0    0.000    0.001   19.084   19.085
 qs_ks_build_kohn_sham_matrix        22  7.0    0.004    0.005   19.083   19.085
 qs_vxc_create                       22  8.0    0.001    0.001   15.560   15.569
 pw_transfer                       1723 10.0    0.135    0.176   13.421   13.874
 calculate_dispersion_nonloc         22  9.0    0.633    0.725   13.744   13.752
 fft_wrap_pw1pw2                   1569 11.0    0.022    0.028   13.180   13.630
 fft_wrap_pw1pw2_150               1389 12.1    0.662    0.725   12.880   13.290
 fft3d_pb                          1389 13.1    2.604    2.986   11.199   11.732
 mp_alltoall_z22v                  2958 15.1    7.516    8.810    7.516    8.810
 cube_transpose_3                   749 14.1    0.294    0.394    4.332    5.066
 rs_pw_transfer                     226  9.5    0.004    0.005    4.656    4.768
 cube_transpose_1                   837 14.2    0.252    0.279    1.133    3.985
 qs_rho_update_rho_low               23  5.0    0.000    0.001    3.714    3.715
 calculate_rho_elec                  23  6.0    0.004    0.005    3.713    3.714
 sum_up_and_integrate                22  8.0    0.005    0.007    2.805    3.242
 integrate_v_rspace                  22  9.0    0.001    0.001    2.800    3.237
 density_rs2pw                       23  7.0    0.001    0.002    2.708    2.826
 potential_pw2rs                     22 10.0    0.001    0.001    2.717    2.734
 cube_transpose_4                   640 14.2    0.349    0.405    2.149    2.620
 xc_vxc_pw_create                    22  9.0    0.008    0.011    1.816    1.828
 vdW_energy                          22 10.0    1.521    1.597    1.521    1.597
 xc_pw_derive                       132 11.0    0.001    0.001    1.336    1.528
 rs_pw_transfer_RS2PW_150            24  8.9    0.976    1.029    1.365    1.487
 rs_pw_transfer_PW2RS_150            22 12.0    0.862    0.914    1.385    1.437
 grid_collocate_task_list            23  7.0    0.990    1.370    0.990    1.370
 mp_waitany                        1726 11.4    1.194    1.349    1.194    1.349
 cube_transpose_2                   732 13.9    0.203    0.219    1.000    1.346
 xc_pw_divergence                    22 10.0    0.000    0.001    0.908    1.097
 xc_rho_set_and_dset_create          22 10.0    0.035    0.039    0.882    1.088
 dbcsr_multiply_generic             483 10.1    0.011    0.012    0.897    0.985
 rs_pw_transfer_PW2RS_50             22 12.0    0.409    0.454    0.809    0.885
 init_scf_loop                        1  4.0    0.000    0.001    0.810    0.812
 rs_pw_transfer_RS2PW_50             23  9.0    0.453    0.497    0.713    0.726
 qs_init_subsys                       1  2.0    0.001    0.001    0.659    0.659
 pw_scatter_p                       837 13.2    0.560    0.635    0.560    0.635
 qs_dispersion_nonloc_init            1  3.0    0.003    0.549    0.591    0.592
 mp_sum_l                          2669 10.0    0.486    0.580    0.486    0.580
 pw_gather_p                        732 12.9    0.464    0.558    0.464    0.558
 qs_scf_new_mos                      22  5.0    0.000    0.000    0.542    0.544
 qs_scf_loop_do_ot                   22  6.0    0.000    0.000    0.542    0.544
 mp_bcast_dv                        176 13.8    0.520    0.524    0.520    0.524
 ot_scf_mini                         22  7.0    0.000    0.000    0.519    0.521
 grid_integrate_task_list            22 10.0    0.019    0.501    0.019    0.501
 mp_alltoall_d11v                   390 12.1    0.070    0.492    0.070    0.492
 -------------------------------------------------------------------------------

 The number of warnings for this run is : 1
 
 -------------------------------------------------------------------------------
  **** **** ******  **  PROGRAM ENDED AT                 2023-04-23 12:22:44.544
 ***** ** ***  *** **   PROGRAM RAN ON                                 nid001080
 **    ****   ******    PROGRAM RAN BY                                  dpassero
 ***** **    ** ** **   PROGRAM PROCESS ID                                 54811
  **** **  *******  **  PROGRAM STOPPED IN /scratch/e1000/dpassero/MMM_2023/jbac
                                           hmann/ethane/full/energy
