 DBCSR| CPU Multiplication driver                                           BLAS (U)
 DBCSR| Multrec recursion limit                                              512 (U)
 DBCSR| Multiplication stack size                                           1000 (D)
 DBCSR| Maximum elements for images                                    UNLIMITED (U)
 DBCSR| Multiplicative factor virtual images                                   1 (U)
 DBCSR| Use multiplication densification                                       T (D)
 DBCSR| Multiplication size stacks                                             3 (U)
 DBCSR| Use memory pool for CPU allocation                                     F (U)
 DBCSR| OMP: Current number of threads                                         1
 DBCSR| OMP: Max number of threads                                             1
 DBCSR| Split modifier for TAS multiplication algorithm                  1.0E+00 (U)


  **** **** ******  **  PROGRAM STARTED AT               2023-04-05 11:06:57.443
 ***** ** ***  *** **   PROGRAM STARTED ON                            eu-a2p-294
 **    ****   ******    PROGRAM STARTED BY                             jbachmann
 ***** **    ** ** **   PROGRAM PROCESS ID                                 84857
  **** **  *******  **  PROGRAM STARTED IN /cluster/home/jbachmann/Molecular-and
                                           -Materials-Modelling-FS2023/exercise7
                                           /PBE/DZVP

 CP2K| version string:                 CP2K version 2023.1 (Development Version)
 CP2K| source code revision number:                                  git:dc34ec9
 CP2K| cp2kflags: omp libint fftw3 libxc max_contr=4 spglib libvori libbqb      
 CP2K| is freely available from                            https://www.cp2k.org/
 CP2K| Program compiled at                         Mon Mar 27 23:22:21 CEST 2023
 CP2K| Program compiled on                                           eu-g5-025-4
 CP2K| Program compiled for                              Linux-gnu-x86_64-static
 CP2K| Data directory path      /cluster/apps/nss/gcc-6.3.0/cp2k/8.2/x86_64/data
 CP2K| Input file name                                               ethanol.inp

 GLOBAL| Force Environment number                                              1
 GLOBAL| Basis set file name                                        BASIS_MOLOPT
 GLOBAL| Potential file name                                      GTH_POTENTIALS
 GLOBAL| MM Potential file name                                     MM_POTENTIAL
 GLOBAL| Coordinate file name                                  ../../ethanol.xyz
 GLOBAL| Method name                                                        CP2K
 GLOBAL| Project name                                                    ethanol
 GLOBAL| Run type                                                        GEO_OPT
 GLOBAL| FFT library                                                       FFTW3
 GLOBAL| Diagonalization library                                       ScaLAPACK
 GLOBAL| DGEMM library                                                      BLAS
 GLOBAL| Orthonormality check for eigenvectors                          DISABLED
 GLOBAL| Matrix multiplication library                                 ScaLAPACK
 GLOBAL| All-to-all communication in single precision                          F
 GLOBAL| FFTs using library dependent lengths                                  F
 GLOBAL| Grid backend                                                       AUTO
 GLOBAL| Global print level                                                  LOW
 GLOBAL| MPI I/O enabled                                                       T
 GLOBAL| Total number of message passing processes                             1
 GLOBAL| Number of threads for this process                                    1
 GLOBAL| This output is from process                                           0
 GLOBAL| Stack size for threads created by OpenMP (OMP_STACKSIZE)        default
 GLOBAL| CPU model name                          AMD EPYC 7763 64-Core Processor

 MEMORY| system memory details [Kb]
 MEMORY|                        rank 0           min           max       average
 MEMORY| MemTotal            261505412     261505412     261505412     261505412
 MEMORY| MemFree             244047044     244047044     244047044     244047044
 MEMORY| Buffers                  1052          1052          1052          1052
 MEMORY| Cached                8049932       8049932       8049932       8049932
 MEMORY| Slab                  1513956       1513956       1513956       1513956
 MEMORY| SReclaimable           442800        442800        442800        442800
 MEMORY| MemLikelyFree       252540828     252540828     252540828     252540828


 GENERATE|  Preliminary Number of Bonds generated:                             0
 GENERATE|  Achieved consistency in connectivity generation.

 *******************************************************************************
 *******************************************************************************
 **                                                                           **
 **     #####                         ##              ##                      **
 **    ##   ##            ##          ##              ##                      **
 **   ##     ##                       ##            ######                    **
 **   ##     ##  ##   ##  ##   #####  ##  ##   ####   ##    #####    #####    **
 **   ##     ##  ##   ##  ##  ##      ## ##   ##      ##   ##   ##  ##   ##   **
 **   ##  ## ##  ##   ##  ##  ##      ####     ###    ##   ######   ######    **
 **    ##  ###   ##   ##  ##  ##      ## ##      ##   ##   ##       ##        **
 **     #######   #####   ##   #####  ##  ##  ####    ##    #####   ##        **
 **           ##                                                    ##        **
 **                                                                           **
 **                                                ... make the atoms dance   **
 **                                                                           **
 **            Copyright (C) by CP2K developers group (2000-2023)             **
 **                      J. Chem. Phys. 152, 194103 (2020)                    **
 **                                                                           **
 *******************************************************************************


 TOTAL NUMBERS AND MAXIMUM NUMBERS

  Total number of            - Atomic kinds:                                   3
                             - Atoms:                                          9
                             - Shell sets:                                     9
                             - Shells:                                        33
                             - Primitive Cartesian functions:                 63
                             - Cartesian basis functions:                     72
                             - Spherical basis functions:                     69

  Maximum angular momentum of- Orbital basis functions:                        2
                             - Local part of the GTH pseudopotential:          2
                             - Non-local part of the GTH pseudopotential:      0


 SCF PARAMETERS         Density guess:                                   RESTART
                        --------------------------------------------------------
                        max_scf:                                              50
                        max_scf_history:                                       0
                        max_diis:                                              4
                        --------------------------------------------------------
                        eps_scf:                                        1.00E-04
                        eps_scf_history:                                0.00E+00
                        eps_diis:                                       1.00E-01
                        eps_eigval:                                     1.00E-05
                        --------------------------------------------------------
                        level_shift [a.u.]:                             0.000000
                        --------------------------------------------------------
                        Outer loop SCF in use 
                        No variables optimised in outer loop
                        eps_scf                                         1.00E-04
                        max_scf                                              500
                        No outer loop optimization
                        step_size                                       5.00E-01

 PW_GRID| Information for grid number                                          1
 PW_GRID| Cutoff [a.u.]                                                    200.0
 PW_GRID| spherical cutoff:                                                   NO
 PW_GRID|   Bounds   1            -96      95                Points:         192
 PW_GRID|   Bounds   2            -96      95                Points:         192
 PW_GRID|   Bounds   3            -96      95                Points:         192
 PW_GRID| Volume element (a.u.^3)  0.3218E-02     Volume (a.u.^3)     22775.6292
 PW_GRID| Grid span                                                    FULLSPACE

 PW_GRID| Information for grid number                                          2
 PW_GRID| Number of the reference grid                                         1
 PW_GRID| Cutoff [a.u.]                                                     66.7
 PW_GRID| spherical cutoff:                                                   NO
 PW_GRID|   Bounds   1            -54      53                Points:         108
 PW_GRID|   Bounds   2            -54      53                Points:         108
 PW_GRID|   Bounds   3            -54      53                Points:         108
 PW_GRID| Volume element (a.u.^3)  0.1808E-01     Volume (a.u.^3)     22775.6292
 PW_GRID| Grid span                                                    FULLSPACE

 PW_GRID| Information for grid number                                          3
 PW_GRID| Number of the reference grid                                         1
 PW_GRID| Cutoff [a.u.]                                                     22.2
 PW_GRID| spherical cutoff:                                                   NO
 PW_GRID|   Bounds   1            -32      31                Points:          64
 PW_GRID|   Bounds   2            -32      31                Points:          64
 PW_GRID|   Bounds   3            -32      31                Points:          64
 PW_GRID| Volume element (a.u.^3)  0.8688E-01     Volume (a.u.^3)     22775.6292
 PW_GRID| Grid span                                                    FULLSPACE

 PW_GRID| Information for grid number                                          4
 PW_GRID| Number of the reference grid                                         1
 PW_GRID| Cutoff [a.u.]                                                      7.4
 PW_GRID| spherical cutoff:                                                   NO
 PW_GRID|   Bounds   1            -18      17                Points:          36
 PW_GRID|   Bounds   2            -18      17                Points:          36
 PW_GRID|   Bounds   3            -18      17                Points:          36
 PW_GRID| Volume element (a.u.^3)  0.4882         Volume (a.u.^3)     22775.6292
 PW_GRID| Grid span                                                    FULLSPACE

 POISSON| Solver                                                         WAVELET
 POISSON| Wavelet| Scaling function                                           40
 POISSON| Periodicity                                                       NONE

 RS_GRID| Information for grid number                                          1
 RS_GRID|   Bounds   1            -96      95                Points:         192
 RS_GRID|   Bounds   2            -96      95                Points:         192
 RS_GRID|   Bounds   3            -96      95                Points:         192

 RS_GRID| Information for grid number                                          2
 RS_GRID|   Bounds   1            -54      53                Points:         108
 RS_GRID|   Bounds   2            -54      53                Points:         108
 RS_GRID|   Bounds   3            -54      53                Points:         108

 RS_GRID| Information for grid number                                          3
 RS_GRID|   Bounds   1            -32      31                Points:          64
 RS_GRID|   Bounds   2            -32      31                Points:          64
 RS_GRID|   Bounds   3            -32      31                Points:          64

 RS_GRID| Information for grid number                                          4
 RS_GRID|   Bounds   1            -18      17                Points:          36
 RS_GRID|   Bounds   2            -18      17                Points:          36
 RS_GRID|   Bounds   3            -18      17                Points:          36

 BFGS| Use rational function optimization for step estimation:                NO
 BFGS| Use model Hessian for initial guess:                                  YES
 BFGS| Restart Hessian:                                                       NO
 BFGS| Trust radius:                                                       0.472

 *******************************************************************************
 ***                     STARTING GEOMETRY OPTIMIZATION                      ***
 ***                                   BFGS                                  ***
 *******************************************************************************

 Number of electrons:                                                         20
 Number of occupied orbitals:                                                 10
 Number of molecular orbitals:                                                10

 Number of orbital functions:                                                 69
 Number of independent orbital functions:                                     69

 Extrapolation method: initial_guess

 *** WARNING in qs_initial_guess.F:305 :: User requested to restart the    ***
 *** wavefunction from the file named: ethanol-RESTART.wfn. This file does ***
 *** not exist. Please check the existence of the file or change properly  ***
 *** the value of the keyword WFN_RESTART_FILE_NAME. Calculation continues ***
 *** using ATOMIC GUESS.                                                   ***



 SCF WAVEFUNCTION OPTIMIZATION

  ----------------------------------- OT ---------------------------------------
  Minimizer      : DIIS                : direct inversion
                                         in the iterative subspace
                                         using   7 DIIS vectors
                                         safer DIIS on
  Preconditioner : FULL_SINGLE_INVERSE : inversion of 
                                         H + eS - 2*(Sc)(c^T*H*c+const)(Sc)^T
  Precond_solver : DEFAULT
  stepsize       :    0.08000000                  energy_gap     :    0.08000000
  eps_taylor     :   0.10000E-15                  max_taylor     :             4
  ----------------------------------- OT ---------------------------------------

  Step     Update method      Time    Convergence         Total energy    Change
  ------------------------------------------------------------------------------
     1 OT DIIS     0.80E-01    9.8     0.19260644       -29.0950691221 -2.91E+01
     2 OT DIIS     0.80E-01    8.2     0.14593222       -30.2941019394 -1.20E+00
     3 OT DIIS     0.80E-01    8.0     0.07126168       -30.7330086497 -4.39E-01
     4 OT DIIS     0.80E-01    8.0     0.04634194       -30.8966191492 -1.64E-01
     5 OT DIIS     0.80E-01    7.8     0.01910854       -30.9402011157 -4.36E-02
     6 OT DIIS     0.80E-01    7.9     0.00855306       -30.9643877045 -2.42E-02
     7 OT DIIS     0.80E-01    7.8     0.00460648       -30.9679668157 -3.58E-03
     8 OT DIIS     0.80E-01    7.8     0.00282874       -30.9692282206 -1.26E-03
     9 OT DIIS     0.80E-01    7.8     0.00124487       -30.9696724516 -4.44E-04
    10 OT DIIS     0.80E-01    7.8     0.00067495       -30.9697908823 -1.18E-04
    11 OT DIIS     0.80E-01    7.8     0.00038216       -30.9698270418 -3.62E-05
    12 OT DIIS     0.80E-01    7.8     0.00026072       -30.9698384149 -1.14E-05
    13 OT DIIS     0.80E-01    7.8     0.00015545       -30.9698409509 -2.54E-06
    14 OT DIIS     0.80E-01    7.7     0.00008359       -30.9698421717 -1.22E-06

  *** SCF run converged in    14 steps ***


  Electronic density on regular grids:        -19.5512754524        0.4487245476
  Core density on regular grids:               20.0000000000       -0.0000000000
  Hard and soft densities (Lebedev):         -394.9338532587     -394.4851290988
  Total Rho_soft + Rho1_hard - Rho1_soft      -19.9999996123
  Total charge density (r-space):               0.0000003877
  Total Rho_soft + Rho0_soft (g-space):         0.0000003209

  Overlap energy of the core charge distribution:               0.00000139242905
  Self energy of the core charge distribution:                -76.65906668574564
  Core Hamiltonian energy:                                     23.31733108168090
  Hartree energy:                                              45.30193017930671
  Exchange-correlation energy:                                 -8.76241304301364

  GAPW| Exc from hard and soft atomic rho1:                    -0.41833578176010
  GAPW| local Eh = 1 center integrals:                        -13.74928931464232

  Total energy:                                               -30.96984217174506

  outer SCF iter =    1 RMS gradient =   0.84E-04 energy =        -30.9698421717
  outer SCF loop converged in   1 iterations or   14 steps

  
  Eigenvalues of the occupied subspace spin            1
 ---------------------------------------------
      -0.93083528     -0.67859805     -0.54894696     -0.46528893
      -0.41320980     -0.35557617     -0.33824111     -0.31850311
      -0.28596114     -0.22368190
 Fermi Energy [eV] :   -6.086694
  
  Lowest Eigenvalues of the unoccupied subspace spin            1
 -----------------------------------------------------
 OT| Eigensolver reached convergence in 63 iterations
       0.03711758
  
 HOMO - LUMO gap [eV] :    7.096715

 ENERGY| Total FORCE_EVAL ( QS ) energy [a.u.]:              -30.969842701254596

 --------  Informations at step =     0 ------------
  Optimization Method        =                 BFGS
  Total Energy               =       -30.9698427013
  Used time                  =              123.362
 ---------------------------------------------------

 --------------------------
 OPTIMIZATION STEP:      1
 --------------------------

 Number of electrons:                                                         20
 Number of occupied orbitals:                                                 10
 Number of molecular orbitals:                                                10

 Number of orbital functions:                                                 69
 Number of independent orbital functions:                                     69

 Extrapolation method: ASPC


 SCF WAVEFUNCTION OPTIMIZATION

  ----------------------------------- OT ---------------------------------------
  Minimizer      : DIIS                : direct inversion
                                         in the iterative subspace
                                         using   7 DIIS vectors
                                         safer DIIS on
  Preconditioner : FULL_SINGLE_INVERSE : inversion of 
                                         H + eS - 2*(Sc)(c^T*H*c+const)(Sc)^T
  Precond_solver : DEFAULT
  stepsize       :    0.08000000                  energy_gap     :    0.08000000
  eps_taylor     :   0.10000E-15                  max_taylor     :             4
  ----------------------------------- OT ---------------------------------------

  Step     Update method      Time    Convergence         Total energy    Change
  ------------------------------------------------------------------------------
     1 OT DIIS     0.80E-01    7.0     0.00120109       -30.9699511400 -3.10E+01
     2 OT DIIS     0.80E-01    7.8     0.00073434       -30.9700145102 -6.34E-05
     3 OT DIIS     0.80E-01    8.5     0.00021256       -30.9700541643 -3.97E-05
     4 OT DIIS     0.80E-01    8.1     0.00006093       -30.9700576833 -3.52E-06

  *** SCF run converged in     4 steps ***


  Electronic density on regular grids:        -19.5546547264        0.4453452736
  Core density on regular grids:               20.0000000000       -0.0000000000
  Hard and soft densities (Lebedev):         -392.4319285494     -391.9865836580
  Total Rho_soft + Rho1_hard - Rho1_soft      -19.9999996178
  Total charge density (r-space):               0.0000003822
  Total Rho_soft + Rho0_soft (g-space):         0.0000003154

  Overlap energy of the core charge distribution:               0.00000123662572
  Self energy of the core charge distribution:                -76.65906668574564
  Core Hamiltonian energy:                                     23.27251733976244
  Hartree energy:                                              45.34254423184759
  Exchange-correlation energy:                                 -8.75243965508010

  GAPW| Exc from hard and soft atomic rho1:                    -0.41499601388462
  GAPW| local Eh = 1 center integrals:                        -13.75861813680798

  Total energy:                                               -30.97005768328259

  outer SCF iter =    1 RMS gradient =   0.61E-04 energy =        -30.9700576833
  outer SCF loop converged in   1 iterations or    4 steps

  
  Eigenvalues of the occupied subspace spin            1
 ---------------------------------------------
      -0.93004343     -0.67757584     -0.54700236     -0.46404665
      -0.41212926     -0.35524648     -0.33729716     -0.31737511
      -0.28852642     -0.22477116
 Fermi Energy [eV] :   -6.116334
  
  Lowest Eigenvalues of the unoccupied subspace spin            1
 -----------------------------------------------------
 OT| Eigensolver reached convergence in 55 iterations
       0.03532692
  
 HOMO - LUMO gap [eV] :    7.077629

 ENERGY| Total FORCE_EVAL ( QS ) energy [a.u.]:              -30.970057944181534

 --------  Informations at step =     1 ------------
  Optimization Method        =                 BFGS
  Total Energy               =       -30.9700579442
  Real energy change         =        -0.0002152429
  Predicted change in energy =        -0.0002252777
  Scaling factor             =         0.0000000000
  Step size                  =         0.0278251086
  Trust radius               =         0.4724315332
  Decrease in energy         =                  YES
  Used time                  =               43.094

  Convergence check :
  Max. step size             =         0.0278251086
  Conv. limit for step size  =         0.0100000000
  Convergence in step size   =                   NO
  RMS step size              =         0.0074771438
  Conv. limit for RMS step   =         0.0030000000
  Convergence in RMS step    =                   NO
  Max. gradient              =         0.0046262397
  Conv. limit for gradients  =         0.0010000000
  Conv. for gradients        =                   NO
  RMS gradient               =         0.0011618401
  Conv. limit for RMS grad.  =         0.0003000000
  Conv. for gradients        =                   NO
 ---------------------------------------------------
 Estimated peak process memory after this step [MiB]                        1794

 --------------------------
 OPTIMIZATION STEP:      2
 --------------------------

 Number of electrons:                                                         20
 Number of occupied orbitals:                                                 10
 Number of molecular orbitals:                                                10

 Number of orbital functions:                                                 69
 Number of independent orbital functions:                                     69

 Extrapolation method: ASPC


 SCF WAVEFUNCTION OPTIMIZATION

  ----------------------------------- OT ---------------------------------------
  Minimizer      : DIIS                : direct inversion
                                         in the iterative subspace
                                         using   7 DIIS vectors
                                         safer DIIS on
  Preconditioner : FULL_SINGLE_INVERSE : inversion of 
                                         H + eS - 2*(Sc)(c^T*H*c+const)(Sc)^T
  Precond_solver : DEFAULT
  stepsize       :    0.08000000                  energy_gap     :    0.08000000
  eps_taylor     :   0.10000E-15                  max_taylor     :             4
  ----------------------------------- OT ---------------------------------------

  Step     Update method      Time    Convergence         Total energy    Change
  ------------------------------------------------------------------------------
     1 OT DIIS     0.80E-01    7.2     0.00142086       -30.9699394705 -3.10E+01
     2 OT DIIS     0.80E-01    7.8     0.00089965       -30.9700296092 -9.01E-05
     3 OT DIIS     0.80E-01    7.6     0.00023503       -30.9700918801 -6.23E-05
     4 OT DIIS     0.80E-01    7.6     0.00008554       -30.9700958579 -3.98E-06

  *** SCF run converged in     4 steps ***


  Electronic density on regular grids:        -19.5554702988        0.4445297012
  Core density on regular grids:               20.0000000000       -0.0000000000
  Hard and soft densities (Lebedev):         -390.3139898638     -389.8694605403
  Total Rho_soft + Rho1_hard - Rho1_soft      -19.9999996223
  Total charge density (r-space):               0.0000003777
  Total Rho_soft + Rho0_soft (g-space):         0.0000003109

  Overlap energy of the core charge distribution:               0.00000114913099
  Self energy of the core charge distribution:                -76.65906668574564
  Core Hamiltonian energy:                                     23.24921830076015
  Hartree energy:                                              45.36128854853205
  Exchange-correlation energy:                                 -8.74595314460237

  GAPW| Exc from hard and soft atomic rho1:                    -0.41424863194776
  GAPW| local Eh = 1 center integrals:                        -13.76133539403723

  Total energy:                                               -30.97009585790980

  outer SCF iter =    1 RMS gradient =   0.86E-04 energy =        -30.9700958579
  outer SCF loop converged in   1 iterations or    4 steps

  
  Eigenvalues of the occupied subspace spin            1
 ---------------------------------------------
      -0.92769935     -0.67728022     -0.54626628     -0.46264375
      -0.41166220     -0.35452505     -0.33772247     -0.31769045
      -0.28754756     -0.22382057
 Fermi Energy [eV] :   -6.090467
  
  Lowest Eigenvalues of the unoccupied subspace spin            1
 -----------------------------------------------------
 OT| Eigensolver reached convergence in 55 iterations
       0.03457533
  
 HOMO - LUMO gap [eV] :    7.031310

 ENERGY| Total FORCE_EVAL ( QS ) energy [a.u.]:              -30.970096338211956

 --------  Informations at step =     2 ------------
  Optimization Method        =                 BFGS
  Total Energy               =       -30.9700963382
  Real energy change         =        -0.0000383940
  Predicted change in energy =        -0.0000726004
  Scaling factor             =         0.0000000000
  Step size                  =         0.0137167209
  Trust radius               =         0.4724315332
  Decrease in energy         =                  YES
  Used time                  =               41.156

  Convergence check :
  Max. step size             =         0.0137167209
  Conv. limit for step size  =         0.0100000000
  Convergence in step size   =                   NO
  RMS step size              =         0.0059084020
  Conv. limit for RMS step   =         0.0030000000
  Convergence in RMS step    =                   NO
  Max. gradient              =         0.0017080571
  Conv. limit for gradients  =         0.0010000000
  Conv. for gradients        =                   NO
  RMS gradient               =         0.0006522979
  Conv. limit for RMS grad.  =         0.0003000000
  Conv. for gradients        =                   NO
 ---------------------------------------------------
 Estimated peak process memory after this step [MiB]                        1794

 --------------------------
 OPTIMIZATION STEP:      3
 --------------------------

 Number of electrons:                                                         20
 Number of occupied orbitals:                                                 10
 Number of molecular orbitals:                                                10

 Number of orbital functions:                                                 69
 Number of independent orbital functions:                                     69

 Extrapolation method: ASPC


 SCF WAVEFUNCTION OPTIMIZATION

  ----------------------------------- OT ---------------------------------------
  Minimizer      : DIIS                : direct inversion
                                         in the iterative subspace
                                         using   7 DIIS vectors
                                         safer DIIS on
  Preconditioner : FULL_SINGLE_INVERSE : inversion of 
                                         H + eS - 2*(Sc)(c^T*H*c+const)(Sc)^T
  Precond_solver : DEFAULT
  stepsize       :    0.08000000                  energy_gap     :    0.08000000
  eps_taylor     :   0.10000E-15                  max_taylor     :             4
  ----------------------------------- OT ---------------------------------------

  Step     Update method      Time    Convergence         Total energy    Change
  ------------------------------------------------------------------------------
     1 OT DIIS     0.80E-01    7.0     0.00141335       -30.9699640493 -3.10E+01
     2 OT DIIS     0.80E-01    7.6     0.00087073       -30.9700516022 -8.76E-05
     3 OT DIIS     0.80E-01    7.6     0.00029014       -30.9701060886 -5.45E-05
     4 OT DIIS     0.80E-01    8.6     0.00010285       -30.9701122747 -6.19E-06
     5 OT DIIS     0.80E-01   10.5     0.00002991       -30.9701130127 -7.38E-07

  *** SCF run converged in     5 steps ***


  Electronic density on regular grids:        -19.5552774153        0.4447225847
  Core density on regular grids:               20.0000000000       -0.0000000000
  Hard and soft densities (Lebedev):         -390.5307711340     -390.0860489263
  Total Rho_soft + Rho1_hard - Rho1_soft      -19.9999996229
  Total charge density (r-space):               0.0000003771
  Total Rho_soft + Rho0_soft (g-space):         0.0000003101

  Overlap energy of the core charge distribution:               0.00000117271849
  Self energy of the core charge distribution:                -76.65906668574564
  Core Hamiltonian energy:                                     23.25508938392082
  Hartree energy:                                              45.35664858399586
  Exchange-correlation energy:                                 -8.74764752756743

  GAPW| Exc from hard and soft atomic rho1:                    -0.41442091800967
  GAPW| local Eh = 1 center integrals:                        -13.76071702205758

  Total energy:                                               -30.97011301274515

  outer SCF iter =    1 RMS gradient =   0.30E-04 energy =        -30.9701130127
  outer SCF loop converged in   1 iterations or    5 steps

  
  Eigenvalues of the occupied subspace spin            1
 ---------------------------------------------
      -0.92804912     -0.67746402     -0.54659478     -0.46275970
      -0.41188757     -0.35490535     -0.33740246     -0.31750775
      -0.28785890     -0.22410299
 Fermi Energy [eV] :   -6.098153
  
  Lowest Eigenvalues of the unoccupied subspace spin            1
 -----------------------------------------------------
 OT| Eigensolver reached convergence in 59 iterations
       0.03482718
  
 HOMO - LUMO gap [eV] :    7.045848

 ENERGY| Total FORCE_EVAL ( QS ) energy [a.u.]:              -30.970113074376581

 --------  Informations at step =     3 ------------
  Optimization Method        =                 BFGS
  Total Energy               =       -30.9701130744
  Real energy change         =        -0.0000167362
  Predicted change in energy =        -0.0000158129
  Scaling factor             =         0.0000000000
  Step size                  =         0.0048989814
  Trust radius               =         0.4724315332
  Decrease in energy         =                  YES
  Used time                  =               52.811

  Convergence check :
  Max. step size             =         0.0048989814
  Conv. limit for step size  =         0.0100000000
  Convergence in step size   =                  YES
  RMS step size              =         0.0023906247
  Conv. limit for RMS step   =         0.0030000000
  Convergence in RMS step    =                  YES
  Max. gradient              =         0.0008177930
  Conv. limit for gradients  =         0.0010000000
  Conv. in gradients         =                  YES
  RMS gradient               =         0.0002108312
  Conv. limit for RMS grad.  =         0.0003000000
  Conv. in RMS gradients     =                  YES
 ---------------------------------------------------
 Estimated peak process memory after this step [MiB]                        1794

 *******************************************************************************
 ***                    GEOMETRY OPTIMIZATION COMPLETED                      ***
 *******************************************************************************

                    Reevaluating energy at the minimum

 Number of electrons:                                                         20
 Number of occupied orbitals:                                                 10
 Number of molecular orbitals:                                                10

 Number of orbital functions:                                                 69
 Number of independent orbital functions:                                     69

 Extrapolation method: ASPC


 SCF WAVEFUNCTION OPTIMIZATION

  ----------------------------------- OT ---------------------------------------
  Minimizer      : DIIS                : direct inversion
                                         in the iterative subspace
                                         using   7 DIIS vectors
                                         safer DIIS on
  Preconditioner : FULL_SINGLE_INVERSE : inversion of 
                                         H + eS - 2*(Sc)(c^T*H*c+const)(Sc)^T
  Precond_solver : DEFAULT
  stepsize       :    0.08000000                  energy_gap     :    0.08000000
  eps_taylor     :   0.10000E-15                  max_taylor     :             4
  ----------------------------------- OT ---------------------------------------

  Step     Update method      Time    Convergence         Total energy    Change
  ------------------------------------------------------------------------------
     1 OT DIIS     0.80E-01    7.1     0.00112263       -30.9700217087 -3.10E+01
     2 OT DIIS     0.80E-01    7.9     0.00067807       -30.9700764305 -5.47E-05
     3 OT DIIS     0.80E-01    8.7     0.00023251       -30.9701085963 -3.22E-05
     4 OT DIIS     0.80E-01    8.7     0.00008176       -30.9701125693 -3.97E-06

  *** SCF run converged in     4 steps ***


  Electronic density on regular grids:        -19.5553380046        0.4446619954
  Core density on regular grids:               20.0000000000       -0.0000000000
  Hard and soft densities (Lebedev):         -390.5150402364     -390.0703786181
  Total Rho_soft + Rho1_hard - Rho1_soft      -19.9999996229
  Total charge density (r-space):               0.0000003771
  Total Rho_soft + Rho0_soft (g-space):         0.0000003101

  Overlap energy of the core charge distribution:               0.00000117271849
  Self energy of the core charge distribution:                -76.65906668574564
  Core Hamiltonian energy:                                     23.25444633190711
  Hartree energy:                                              45.35730443908241
  Exchange-correlation energy:                                 -8.74755874094434

  GAPW| Exc from hard and soft atomic rho1:                    -0.41436310780946
  GAPW| local Eh = 1 center integrals:                        -13.76087597848114

  Total energy:                                               -30.97011256927256

  outer SCF iter =    1 RMS gradient =   0.82E-04 energy =        -30.9701125693
  outer SCF loop converged in   1 iterations or    4 steps

  
  Eigenvalues of the occupied subspace spin            1
 ---------------------------------------------
      -0.92807817     -0.67748026     -0.54662578     -0.46278198
      -0.41189771     -0.35492534     -0.33743580     -0.31753428
      -0.28787523     -0.22412769
 Fermi Energy [eV] :   -6.098825
  
  Lowest Eigenvalues of the unoccupied subspace spin            1
 -----------------------------------------------------
 OT| Eigensolver reached convergence in 59 iterations
       0.03481181
  
 HOMO - LUMO gap [eV] :    7.046102

 ENERGY| Total FORCE_EVAL ( QS ) energy [a.u.]:              -30.970112569272558

 -------------------------------------------------------------------------------
 -                                                                             -
 -                                DBCSR STATISTICS                             -
 -                                                                             -
 -------------------------------------------------------------------------------
 COUNTER                                    TOTAL       BLAS       SMM       ACC
 flops    10 x     1 x    10                 2000     100.0%      0.0%      0.0%
 flops     1 x     1 x     1                 3132     100.0%      0.0%      0.0%
 flops    10 x     1 x    69                13800     100.0%      0.0%      0.0%
 flops    69 x     1 x    10                13800     100.0%      0.0%      0.0%
 flops     5 x    10 x    10                30000     100.0%      0.0%      0.0%
 flops    11 x     1 x    11                35816     100.0%      0.0%      0.0%
 flops    13 x    10 x    10                39000     100.0%      0.0%      0.0%
 flops     1 x     1 x    69                78246     100.0%      0.0%      0.0%
 flops    69 x     1 x     1               121164     100.0%      0.0%      0.0%
 flops    11 x    11 x    69               166980     100.0%      0.0%      0.0%
 flops    11 x     1 x    69               224664     100.0%      0.0%      0.0%
 flops    69 x     1 x    11               224664     100.0%      0.0%      0.0%
 flops    10 x    10 x    10               412000     100.0%      0.0%      0.0%
 flops     5 x     5 x    10               472500     100.0%      0.0%      0.0%
 flops    13 x     5 x    10               526500     100.0%      0.0%      0.0%
 flops     5 x    13 x    10               526500     100.0%      0.0%      0.0%
 flops    13 x    13 x    10               912600     100.0%      0.0%      0.0%
 flops    69 x    11 x    69              1047420     100.0%      0.0%      0.0%
 flops     5 x     1 x     5              1074600     100.0%      0.0%      0.0%
 flops    13 x     1 x     5              1396980     100.0%      0.0%      0.0%
 flops     5 x     1 x    13              1396980     100.0%      0.0%      0.0%
 flops    69 x     1 x    69              1409256     100.0%      0.0%      0.0%
 flops    13 x     1 x    13              1816074     100.0%      0.0%      0.0%
 flops    10 x    10 x    69              1849200     100.0%      0.0%      0.0%
 flops     5 x    10 x     5              1962000     100.0%      0.0%      0.0%
 flops    69 x    10 x    10              2070000     100.0%      0.0%      0.0%
 flops    13 x    10 x     5              2550600     100.0%      0.0%      0.0%
 flops     5 x    10 x    13              2550600     100.0%      0.0%      0.0%
 flops    13 x    10 x    13              3315780     100.0%      0.0%      0.0%
 flops    69 x    10 x    69              3427920     100.0%      0.0%      0.0%
 flops inhomo. stacks                           0       0.0%      0.0%      0.0%
 flops total                        29.670776E+06     100.0%      0.0%      0.0%
 flops max/rank                     29.670776E+06     100.0%      0.0%      0.0%
 matmuls inhomo. stacks                         0       0.0%      0.0%      0.0%
 matmuls total                              63435     100.0%      0.0%      0.0%
 number of processed stacks                  7193     100.0%      0.0%      0.0%
 average stack size                                     8.8       0.0       0.0
 marketing flops                    31.589336E+06
 -------------------------------------------------------------------------------
 # multiplications                           4960
 max memory usage/rank               1.824444E+09
 # max total images/rank                        1
 # max 3D layers                                1
 # MPI messages exchanged                       0
 -------------------------------------------------------------------------------

 -------------------------------------------------------------------------------
 -                                                                             -
 -                                DBM STATISTICS                               -
 -                                                                             -
 -------------------------------------------------------------------------------
    M  x    N  x    K                                          COUNT     PERCENT
 -------------------------------------------------------------------------------

 -------------------------------------------------------------------------------
 -                                                                             -
 -                                GRID STATISTICS                              -
 -                                                                             -
 -------------------------------------------------------------------------------
 LP    KERNEL             BACKEND                              COUNT     PERCENT
 2     collocate ortho    REF                                  25986      23.99%
 2     integrate ortho    REF                                  22196      20.49%
 3     collocate ortho    REF                                  21564      19.91%
 3     integrate ortho    REF                                  21433      19.79%
 4     integrate ortho    REF                                   8379       7.73%
 4     collocate ortho    REF                                   6948       6.41%
 5     integrate ortho    REF                                    772       0.71%
 1     collocate ortho    REF                                    420       0.39%
 2     collocate general  REF                                    315       0.29%
 2     integrate general  REF                                    279       0.26%
 3     integrate general  REF                                     36       0.03%
 -------------------------------------------------------------------------------

 MEMORY| Estimated peak process memory [MiB]                                1794

 -------------------------------------------------------------------------------
 ----                             MULTIGRID INFO                            ----
 -------------------------------------------------------------------------------
 count for grid        1:          16576          cutoff [a.u.]          200.00
 count for grid        2:          10437          cutoff [a.u.]           66.67
 count for grid        3:           8189          cutoff [a.u.]           22.22
 count for grid        4:           6459          cutoff [a.u.]            7.41
 total gridlevel count  :          41661

 -------------------------------------------------------------------------------
 -                                                                             -
 -                           R E F E R E N C E S                               -
 -                                                                             -
 -------------------------------------------------------------------------------
 
 CP2K version 2023.1 (Development Version), the CP2K developers group (2023).
 CP2K is freely available from https://www.cp2k.org/ .

 Kuehne,Thomas D.; Iannuzzi,Marcella; Del Ben,Mauro;
 Rybkin,Vladimir V.; Seewald,Patrick; Stein,Frederick; Laino,Teodoro;
 Khaliullin,Rustam Z.; Schuett,Ole; Schiffmann,Florian; Golze,Dorothea;
 Wilhelm,Jan; Chulkov,Sergey; Bani-Hashemian,Mohammad Hossein;
 Weber,Valery; Borstnik,Urban; Taillefumier,Mathieu;
 Jakobovits,Alice Shoshana; Lazzaro,Alfio; Pabst,Hans; Mueller,Tiziano;
 Schade,Robert; Guidon,Manuel; Andermatt,Samuel; Holmberg,Nico;
 Schenter,Gregory K.; Hehn,Anna; Bussy,Augustin; Belleflamme,Fabian;
 Tabacchi,Gloria; Gloess,Andreas; Lass,Michael; Bethune,Iain;
 Mundy,Christopher J.; Plessl,Christian; Watkins,Matt;
 VandeVondele,Joost; Krack,Matthias; Hutter,Juerg. 
 The Journal of Chemical Physics, 152 (19), (2020). 
 CP2K: An electronic structure and molecular dynamics software package -
 Quickstep: Efficient and accurate electronic structure calculations.
 https://doi.org/10.1063/5.0007045

 Schuett, Ole; Messmer, Peter; Hutter, Juerg; VandeVondele, Joost. 
 Electronic Structure Calculations on Graphics Processing Units, John
 Wiley & Sons, Ltd, 173-190 (2016). 
 GPU-Accelerated Sparse Matrix-Matrix Multiplication for
 Linear Scaling Density Functional Theory.
 https://doi.org/10.1002/9781118670712.ch8

 Borstnik, U; VandeVondele, J; Weber, V; Hutter, J. 
 PARALLEL COMPUTING, 40 (5-6), 47-58 (2014). 
 Sparse matrix multiplication: The distributed block-compressed sparse
 row library.
 https://doi.org/10.1016/j.parco.2014.03.012

 Hutter, J; Iannuzzi, M; Schiffmann, F; VandeVondele, J. 
 WIREs Comput Mol Sci., 4 (1), 15-25 (2014). 
 CP2K: atomistic simulations of condensed matter systems.
 https://doi.org/10.1002/wcms.1159

 VandeVondele, J; Hutter, J. 
 JOURNAL OF CHEMICAL PHYSICS, 127 (11), 114105 (2007). 
 Gaussian basis sets for accurate calculations on molecular systems in
 gas and condensed phases.
 https://doi.org/10.1063/1.2770708

 Genovese, L; Deutsch, T; Goedecker, S. 
 JOURNAL OF CHEMICAL PHYSICS, 127 (5), 054704 (2007). 
 Efficient and accurate three-dimensional Poisson solver for surface
 problems.
 https://doi.org/10.1063/1.2754685

 Kuhne, TD; Krack, M; Mohamed, FR; Parrinello, M. 
 PHYSICAL REVIEW LETTERS, 98 (6), 066401 (2007). 
 Efficient and accurate Car-Parrinello-like approach to
 Born-Oppenheimer molecular dynamics.
 https://doi.org/10.1103/PhysRevLett.98.066401

 Genovese, L; Deutsch, T; Neelov, A; Goedecker, S; Beylkin, G. 
 JOURNAL OF CHEMICAL PHYSICS, 125 (7), 074105 (2006). 
 Efficient solution of Poisson's equation with free boundary conditions.
 https://doi.org/10.1063/1.2335442

 Krack, M. 
 THEORETICAL CHEMISTRY ACCOUNTS, 114 (1-3), 145-152 (2005). 
 Pseudopotentials for H to Kr optimized for gradient-corrected
 exchange-correlation functionals.
 https://doi.org/10.1007/s00214-005-0655-y

 Frigo, M; Johnson, SG. 
 PROCEEDINGS OF THE IEEE, 93 (2), 216-231 (2005). 
 The design and implementation of FFTW3.
 https://doi.org/10.1109/JPROC.2004.840301

 Kolafa, J. 
 JOURNAL OF COMPUTATIONAL CHEMISTRY, 25 (3), 335-342 (2004). 
 Time-reversible always stable predictor-corrector method for
 molecular dynamics of polarizable molecules.
 https://doi.org/10.1002/jcc.10385

 VandeVondele, J; Hutter, J. 
 JOURNAL OF CHEMICAL PHYSICS, 118 (10), 4365-4369 (2003). 
 An efficient orbital transformation method for electronic structure
 calculations.
 https://doi.org/10.1063/1.1543154

 Lippert, G; Hutter, J; Parrinello, M. 
 THEORETICAL CHEMISTRY ACCOUNTS, 103 (2), 124-140 (1999). 
 The Gaussian and augmented-plane-wave density functional method for ab
 initio molecular dynamics simulations.
 https://doi.org/10.1007/s002140050523

 Krack, M; Parrinello, M. 
 PHYSICAL CHEMISTRY CHEMICAL PHYSICS, 2 (10), 2105-2112 (2000). 
 All-electron ab-initio molecular dynamics.
 https://doi.org/10.1039/b001167n

 Hartwigsen, C; Goedecker, S; Hutter, J. 
 PHYSICAL REVIEW B, 58 (7), 3641-3662 (1998). 
 Relativistic separable dual-space Gaussian pseudopotentials from H to Rn.
 https://doi.org/10.1103/PhysRevB.58.3641

 Perdew, JP; Burke, K; Ernzerhof, M. 
 PHYSICAL REVIEW LETTERS, 77 (18), 3865-3868 (1996). 
 Generalized gradient approximation made simple.
 https://doi.org/10.1103/PhysRevLett.77.3865

 Goedecker, S; Teter, M; Hutter, J. 
 PHYSICAL REVIEW B, 54 (3), 1703-1710 (1996). 
 Separable dual-space Gaussian pseudopotentials.
 https://doi.org/10.1103/PhysRevB.54.1703


 -------------------------------------------------------------------------------
 -                                                                             -
 -                                T I M I N G                                  -
 -                                                                             -
 -------------------------------------------------------------------------------
 SUBROUTINE                       CALLS  ASD         SELF TIME        TOTAL TIME
                                MAXIMUM       AVERAGE  MAXIMUM  AVERAGE  MAXIMUM
 CP2K                                 1  1.0    0.072    0.072  299.597  299.597
 cp_geo_opt                           1  2.0    0.000    0.000  296.799  296.799
 geoopt_bfgs                          1  3.0    0.001    0.001  296.799  296.799
 cp_eval_at                           5  4.0    0.001    0.001  296.776  296.776
 qs_energies                          5  5.8    0.000    0.000  267.922  267.922
 qs_forces                            4  5.0    0.001    0.001  260.410  260.410
 rebuild_ks_matrix                   35  9.5    0.000    0.000  255.910  255.910
 qs_ks_build_kohn_sham_matrix        35 10.5    0.007    0.007  255.910  255.910
 scf_env_do_scf                       5  6.8    0.000    0.000  251.269  251.269
 qs_ks_update_qs_env                 36  8.9    0.000    0.000  227.165  227.165
 scf_env_do_scf_inner_loop           31  7.9    0.002    0.002  213.203  213.203
 pw_transfer                        790 13.5    0.044    0.044  152.156  152.156
 fft_wrap_pw1pw2                    755 14.5    0.007    0.007  151.728  151.728
 fft_wrap_pw1pw2_200                512 15.9   13.465   13.465  148.228  148.228
 qs_vxc_create                       35 11.5    0.001    0.001  146.936  146.936
 xc_vxc_pw_create                    35 12.5    1.668    1.668  146.936  146.936
 xc_rho_set_and_dset_create          35 13.5    1.681    1.681   97.682   97.682
 fft3d_s                            756 16.5   73.502   73.502   73.521   73.521
 xc_pw_derive                       210 14.5    0.002    0.002   68.097   68.097
 xc_functional_eval                 665 13.6    0.002    0.002   63.767   63.767
 pbe_lda_eval                       665 14.6   63.765   63.765   63.765   63.765
 pw_poisson_solve                    35 11.5    6.609    6.609   63.556   63.556
 xc_pw_divergence                    35 13.5    0.001    0.001   46.948   46.948
 init_scf_loop                        5  7.8    0.000    0.000   38.065   38.065
 pw_gather_s                        394 16.1   36.807   36.807   36.807   36.807
 qs_ks_update_qs_env_forces           4  6.0    0.000    0.000   28.747   28.747
 pw_scatter_s                       361 17.0   27.740   27.740   27.740   27.740
 qs_rho_update_rho_low               36  9.0    0.001    0.001   27.713   27.713
 calculate_rho_elec                  36 10.0    0.903    0.903   27.649   27.649
 ps_wavelet_solve                    35 12.5   26.559   26.559   27.465   27.465
 density_rs2pw                       36 11.0    0.002    0.002   24.057   24.057
 sum_up_and_integrate                35 11.5    1.109    1.109   17.097   17.097
 integrate_v_rspace                  35 12.5    0.002    0.002   15.988   15.988
 prepare_gapw_den                    35 11.5    0.001    0.001   14.367   14.367
 put_rho0_on_grid                    35 12.5    0.895    0.895   13.917   13.917
 potential_pw2rs                     35 13.5    0.026    0.026   13.611   13.611
 scf_post_calculation_gpw             5  6.8    0.001    0.001   12.628   12.628
 calculate_wavefunction              10  8.8    0.039    0.039    6.800    6.800
 pw_derive                          210 15.5    6.149    6.149    6.149    6.149
 -------------------------------------------------------------------------------

 The number of warnings for this run is : 1
 
 -------------------------------------------------------------------------------
  **** **** ******  **  PROGRAM ENDED AT                 2023-04-05 11:11:57.296
 ***** ** ***  *** **   PROGRAM RAN ON                                eu-a2p-294
 **    ****   ******    PROGRAM RAN BY                                 jbachmann
 ***** **    ** ** **   PROGRAM PROCESS ID                                 84857
  **** **  *******  **  PROGRAM STOPPED IN /cluster/home/jbachmann/Molecular-and
                                           -Materials-Modelling-FS2023/exercise7
                                           /PBE/DZVP
