 DBCSR| CPU Multiplication driver                                           BLAS (U)
 DBCSR| Multrec recursion limit                                              512 (U)
 DBCSR| Multiplication stack size                                           1000 (D)
 DBCSR| Maximum elements for images                                    UNLIMITED (U)
 DBCSR| Multiplicative factor virtual images                                   1 (U)
 DBCSR| Use multiplication densification                                       T (D)
 DBCSR| Multiplication size stacks                                             3 (U)
 DBCSR| Use memory pool for CPU allocation                                     F (U)
 DBCSR| OMP: Current number of threads                                         1
 DBCSR| OMP: Max number of threads                                             1
 DBCSR| Split modifier for TAS multiplication algorithm                  1.0E+00 (U)


  **** **** ******  **  PROGRAM STARTED AT               2023-04-05 11:06:57.443
 ***** ** ***  *** **   PROGRAM STARTED ON                            eu-a2p-294
 **    ****   ******    PROGRAM STARTED BY                             jbachmann
 ***** **    ** ** **   PROGRAM PROCESS ID                                 84858
  **** **  *******  **  PROGRAM STARTED IN /cluster/home/jbachmann/Molecular-and
                                           -Materials-Modelling-FS2023/exercise7
                                           /PBE/DZVP

 CP2K| version string:                 CP2K version 2023.1 (Development Version)
 CP2K| source code revision number:                                  git:dc34ec9
 CP2K| cp2kflags: omp libint fftw3 libxc max_contr=4 spglib libvori libbqb      
 CP2K| is freely available from                            https://www.cp2k.org/
 CP2K| Program compiled at                         Mon Mar 27 23:22:21 CEST 2023
 CP2K| Program compiled on                                           eu-g5-025-4
 CP2K| Program compiled for                              Linux-gnu-x86_64-static
 CP2K| Data directory path      /cluster/apps/nss/gcc-6.3.0/cp2k/8.2/x86_64/data
 CP2K| Input file name                                                ethene.inp

 GLOBAL| Force Environment number                                              1
 GLOBAL| Basis set file name                                        BASIS_MOLOPT
 GLOBAL| Potential file name                                      GTH_POTENTIALS
 GLOBAL| MM Potential file name                                     MM_POTENTIAL
 GLOBAL| Coordinate file name                                   ../../ethene.xyz
 GLOBAL| Method name                                                        CP2K
 GLOBAL| Project name                                                     ethene
 GLOBAL| Run type                                                        GEO_OPT
 GLOBAL| FFT library                                                       FFTW3
 GLOBAL| Diagonalization library                                       ScaLAPACK
 GLOBAL| DGEMM library                                                      BLAS
 GLOBAL| Orthonormality check for eigenvectors                          DISABLED
 GLOBAL| Matrix multiplication library                                 ScaLAPACK
 GLOBAL| All-to-all communication in single precision                          F
 GLOBAL| FFTs using library dependent lengths                                  F
 GLOBAL| Grid backend                                                       AUTO
 GLOBAL| Global print level                                                  LOW
 GLOBAL| MPI I/O enabled                                                       T
 GLOBAL| Total number of message passing processes                             1
 GLOBAL| Number of threads for this process                                    1
 GLOBAL| This output is from process                                           0
 GLOBAL| Stack size for threads created by OpenMP (OMP_STACKSIZE)        default
 GLOBAL| CPU model name                          AMD EPYC 7763 64-Core Processor

 MEMORY| system memory details [Kb]
 MEMORY|                        rank 0           min           max       average
 MEMORY| MemTotal            261505412     261505412     261505412     261505412
 MEMORY| MemFree             244058112     244058112     244058112     244058112
 MEMORY| Buffers                  1052          1052          1052          1052
 MEMORY| Cached                8049932       8049932       8049932       8049932
 MEMORY| Slab                  1513956       1513956       1513956       1513956
 MEMORY| SReclaimable           442800        442800        442800        442800
 MEMORY| MemLikelyFree       252551896     252551896     252551896     252551896


 GENERATE|  Preliminary Number of Bonds generated:                             0
 GENERATE|  Achieved consistency in connectivity generation.

 *******************************************************************************
 *******************************************************************************
 **                                                                           **
 **     #####                         ##              ##                      **
 **    ##   ##            ##          ##              ##                      **
 **   ##     ##                       ##            ######                    **
 **   ##     ##  ##   ##  ##   #####  ##  ##   ####   ##    #####    #####    **
 **   ##     ##  ##   ##  ##  ##      ## ##   ##      ##   ##   ##  ##   ##   **
 **   ##  ## ##  ##   ##  ##  ##      ####     ###    ##   ######   ######    **
 **    ##  ###   ##   ##  ##  ##      ## ##      ##   ##   ##       ##        **
 **     #######   #####   ##   #####  ##  ##  ####    ##    #####   ##        **
 **           ##                                                    ##        **
 **                                                                           **
 **                                                ... make the atoms dance   **
 **                                                                           **
 **            Copyright (C) by CP2K developers group (2000-2023)             **
 **                      J. Chem. Phys. 152, 194103 (2020)                    **
 **                                                                           **
 *******************************************************************************


 TOTAL NUMBERS AND MAXIMUM NUMBERS

  Total number of            - Atomic kinds:                                   2
                             - Atoms:                                          6
                             - Shell sets:                                     6
                             - Shells:                                        22
                             - Primitive Cartesian functions:                 42
                             - Cartesian basis functions:                     48
                             - Spherical basis functions:                     46

  Maximum angular momentum of- Orbital basis functions:                        2
                             - Local part of the GTH pseudopotential:          2
                             - Non-local part of the GTH pseudopotential:      0


 SCF PARAMETERS         Density guess:                                   RESTART
                        --------------------------------------------------------
                        max_scf:                                              50
                        max_scf_history:                                       0
                        max_diis:                                              4
                        --------------------------------------------------------
                        eps_scf:                                        1.00E-04
                        eps_scf_history:                                0.00E+00
                        eps_diis:                                       1.00E-01
                        eps_eigval:                                     1.00E-05
                        --------------------------------------------------------
                        level_shift [a.u.]:                             0.000000
                        --------------------------------------------------------
                        Outer loop SCF in use 
                        No variables optimised in outer loop
                        eps_scf                                         1.00E-04
                        max_scf                                              500
                        No outer loop optimization
                        step_size                                       5.00E-01

 PW_GRID| Information for grid number                                          1
 PW_GRID| Cutoff [a.u.]                                                    200.0
 PW_GRID| spherical cutoff:                                                   NO
 PW_GRID|   Bounds   1            -96      95                Points:         192
 PW_GRID|   Bounds   2            -96      95                Points:         192
 PW_GRID|   Bounds   3            -96      95                Points:         192
 PW_GRID| Volume element (a.u.^3)  0.3218E-02     Volume (a.u.^3)     22775.6292
 PW_GRID| Grid span                                                    FULLSPACE

 PW_GRID| Information for grid number                                          2
 PW_GRID| Number of the reference grid                                         1
 PW_GRID| Cutoff [a.u.]                                                     66.7
 PW_GRID| spherical cutoff:                                                   NO
 PW_GRID|   Bounds   1            -54      53                Points:         108
 PW_GRID|   Bounds   2            -54      53                Points:         108
 PW_GRID|   Bounds   3            -54      53                Points:         108
 PW_GRID| Volume element (a.u.^3)  0.1808E-01     Volume (a.u.^3)     22775.6292
 PW_GRID| Grid span                                                    FULLSPACE

 PW_GRID| Information for grid number                                          3
 PW_GRID| Number of the reference grid                                         1
 PW_GRID| Cutoff [a.u.]                                                     22.2
 PW_GRID| spherical cutoff:                                                   NO
 PW_GRID|   Bounds   1            -32      31                Points:          64
 PW_GRID|   Bounds   2            -32      31                Points:          64
 PW_GRID|   Bounds   3            -32      31                Points:          64
 PW_GRID| Volume element (a.u.^3)  0.8688E-01     Volume (a.u.^3)     22775.6292
 PW_GRID| Grid span                                                    FULLSPACE

 PW_GRID| Information for grid number                                          4
 PW_GRID| Number of the reference grid                                         1
 PW_GRID| Cutoff [a.u.]                                                      7.4
 PW_GRID| spherical cutoff:                                                   NO
 PW_GRID|   Bounds   1            -18      17                Points:          36
 PW_GRID|   Bounds   2            -18      17                Points:          36
 PW_GRID|   Bounds   3            -18      17                Points:          36
 PW_GRID| Volume element (a.u.^3)  0.4882         Volume (a.u.^3)     22775.6292
 PW_GRID| Grid span                                                    FULLSPACE

 POISSON| Solver                                                         WAVELET
 POISSON| Wavelet| Scaling function                                           40
 POISSON| Periodicity                                                       NONE

 RS_GRID| Information for grid number                                          1
 RS_GRID|   Bounds   1            -96      95                Points:         192
 RS_GRID|   Bounds   2            -96      95                Points:         192
 RS_GRID|   Bounds   3            -96      95                Points:         192

 RS_GRID| Information for grid number                                          2
 RS_GRID|   Bounds   1            -54      53                Points:         108
 RS_GRID|   Bounds   2            -54      53                Points:         108
 RS_GRID|   Bounds   3            -54      53                Points:         108

 RS_GRID| Information for grid number                                          3
 RS_GRID|   Bounds   1            -32      31                Points:          64
 RS_GRID|   Bounds   2            -32      31                Points:          64
 RS_GRID|   Bounds   3            -32      31                Points:          64

 RS_GRID| Information for grid number                                          4
 RS_GRID|   Bounds   1            -18      17                Points:          36
 RS_GRID|   Bounds   2            -18      17                Points:          36
 RS_GRID|   Bounds   3            -18      17                Points:          36

 BFGS| Use rational function optimization for step estimation:                NO
 BFGS| Use model Hessian for initial guess:                                  YES
 BFGS| Restart Hessian:                                                       NO
 BFGS| Trust radius:                                                       0.472

 *******************************************************************************
 ***                     STARTING GEOMETRY OPTIMIZATION                      ***
 ***                                   BFGS                                  ***
 *******************************************************************************

 Number of electrons:                                                         12
 Number of occupied orbitals:                                                  6
 Number of molecular orbitals:                                                 6

 Number of orbital functions:                                                 46
 Number of independent orbital functions:                                     46

 Extrapolation method: initial_guess

 *** WARNING in qs_initial_guess.F:305 :: User requested to restart the    ***
 *** wavefunction from the file named: ethene-RESTART.wfn. This file does  ***
 *** not exist. Please check the existence of the file or change properly  ***
 *** the value of the keyword WFN_RESTART_FILE_NAME. Calculation continues ***
 *** using ATOMIC GUESS.                                                   ***



 SCF WAVEFUNCTION OPTIMIZATION

  ----------------------------------- OT ---------------------------------------
  Minimizer      : DIIS                : direct inversion
                                         in the iterative subspace
                                         using   7 DIIS vectors
                                         safer DIIS on
  Preconditioner : FULL_SINGLE_INVERSE : inversion of 
                                         H + eS - 2*(Sc)(c^T*H*c+const)(Sc)^T
  Precond_solver : DEFAULT
  stepsize       :    0.08000000                  energy_gap     :    0.08000000
  eps_taylor     :   0.10000E-15                  max_taylor     :             4
  ----------------------------------- OT ---------------------------------------

  Step     Update method      Time    Convergence         Total energy    Change
  ------------------------------------------------------------------------------
     1 OT DIIS     0.80E-01    9.9     0.24632149       -12.5822498472 -1.26E+01
     2 OT DIIS     0.80E-01    8.3     0.14030011       -13.4395207252 -8.57E-01
     3 OT DIIS     0.80E-01    8.0     0.07322198       -13.6100193749 -1.70E-01
     4 OT DIIS     0.80E-01    8.2     0.03890664       -13.6596856565 -4.97E-02
     5 OT DIIS     0.80E-01    8.0     0.02018787       -13.6745877752 -1.49E-02
     6 OT DIIS     0.80E-01    8.0     0.00891259       -13.6864518052 -1.19E-02
     7 OT DIIS     0.80E-01    7.7     0.00389178       -13.6889269410 -2.48E-03
     8 OT DIIS     0.80E-01    7.9     0.00211574       -13.6893029107 -3.76E-04
     9 OT DIIS     0.80E-01    7.9     0.00086539       -13.6894592512 -1.56E-04
    10 OT DIIS     0.80E-01    7.9     0.00051357       -13.6894794605 -2.02E-05
    11 OT DIIS     0.80E-01    7.8     0.00025370       -13.6894872913 -7.83E-06
    12 OT DIIS     0.80E-01    7.8     0.00014203       -13.6894891890 -1.90E-06
    13 OT DIIS     0.80E-01    7.8     0.00010305       -13.6894895777 -3.89E-07
    14 OT DIIS     0.80E-01    7.7     0.00004110       -13.6894898577 -2.80E-07

  *** SCF run converged in    14 steps ***


  Electronic density on regular grids:        -11.9127261627        0.0872738373
  Core density on regular grids:               12.0000000000       -0.0000000000
  Hard and soft densities (Lebedev):         -217.7376498670     -217.6503760503
  Total Rho_soft + Rho1_hard - Rho1_soft      -11.9999999794
  Total charge density (r-space):               0.0000000206
  Total Rho_soft + Rho0_soft (g-space):        -0.0000000180

  Overlap energy of the core charge distribution:               0.00000110899985
  Self energy of the core charge distribution:                -32.31191168900799
  Core Hamiltonian energy:                                      9.85373231842878
  Hartree energy:                                              25.63316004886694
  Exchange-correlation energy:                                 -4.65954752752997

  GAPW| Exc from hard and soft atomic rho1:                    -0.06242485568202
  GAPW| local Eh = 1 center integrals:                        -12.14249926177081

  Total energy:                                               -13.68948985769522

  outer SCF iter =    1 RMS gradient =   0.41E-04 energy =        -13.6894898577
  outer SCF loop converged in   1 iterations or   14 steps

  
  Eigenvalues of the occupied subspace spin            1
 ---------------------------------------------
      -0.68073096     -0.50936276     -0.39395461     -0.37968689
      -0.28000278     -0.25022887
 Fermi Energy [eV] :   -6.809074
  
  Lowest Eigenvalues of the unoccupied subspace spin            1
 -----------------------------------------------------
 OT| Eigensolver reached convergence in 49 iterations
      -0.03141693
  
 HOMO - LUMO gap [eV] :    5.954176

 ENERGY| Total FORCE_EVAL ( QS ) energy [a.u.]:              -13.689489905172588

 --------  Informations at step =     0 ------------
  Optimization Method        =                 BFGS
  Total Energy               =       -13.6894899052
  Used time                  =              124.310
 ---------------------------------------------------

 --------------------------
 OPTIMIZATION STEP:      1
 --------------------------

 Number of electrons:                                                         12
 Number of occupied orbitals:                                                  6
 Number of molecular orbitals:                                                 6

 Number of orbital functions:                                                 46
 Number of independent orbital functions:                                     46

 Extrapolation method: ASPC


 SCF WAVEFUNCTION OPTIMIZATION

  ----------------------------------- OT ---------------------------------------
  Minimizer      : DIIS                : direct inversion
                                         in the iterative subspace
                                         using   7 DIIS vectors
                                         safer DIIS on
  Preconditioner : FULL_SINGLE_INVERSE : inversion of 
                                         H + eS - 2*(Sc)(c^T*H*c+const)(Sc)^T
  Precond_solver : DEFAULT
  stepsize       :    0.08000000                  energy_gap     :    0.08000000
  eps_taylor     :   0.10000E-15                  max_taylor     :             4
  ----------------------------------- OT ---------------------------------------

  Step     Update method      Time    Convergence         Total energy    Change
  ------------------------------------------------------------------------------
     1 OT DIIS     0.80E-01    7.2     0.01123425       -13.7161483765 -1.37E+01
     2 OT DIIS     0.80E-01    8.0     0.00665127       -13.7183385059 -2.19E-03
     3 OT DIIS     0.80E-01    7.4     0.00191045       -13.7195897240 -1.25E-03
     4 OT DIIS     0.80E-01    8.3     0.00066508       -13.7197016964 -1.12E-04
     5 OT DIIS     0.80E-01    7.4     0.00012691       -13.7197160831 -1.44E-05
     6 OT DIIS     0.80E-01    7.4     0.00005689       -13.7197165230 -4.40E-07

  *** SCF run converged in     6 steps ***


  Electronic density on regular grids:        -11.9070629389        0.0929370611
  Core density on regular grids:               12.0000000000       -0.0000000000
  Hard and soft densities (Lebedev):         -230.3075363497     -230.2145993118
  Total Rho_soft + Rho1_hard - Rho1_soft      -11.9999999768
  Total charge density (r-space):               0.0000000232
  Total Rho_soft + Rho0_soft (g-space):        -0.0000000156

  Overlap energy of the core charge distribution:               0.00000133606553
  Self energy of the core charge distribution:                -32.31191168900799
  Core Hamiltonian energy:                                     10.10683808354120
  Hartree energy:                                              25.42612676565983
  Exchange-correlation energy:                                 -4.74796789979809

  GAPW| Exc from hard and soft atomic rho1:                    -0.06726625851462
  GAPW| local Eh = 1 center integrals:                        -12.12553686093736

  Total energy:                                               -13.71971652299149

  outer SCF iter =    1 RMS gradient =   0.57E-04 energy =        -13.7197165230
  outer SCF loop converged in   1 iterations or    6 steps

  
  Eigenvalues of the occupied subspace spin            1
 ---------------------------------------------
      -0.68409902     -0.51860171     -0.40336323     -0.38275812
      -0.29981030     -0.24647842
 Fermi Energy [eV] :   -6.707019
  
  Lowest Eigenvalues of the unoccupied subspace spin            1
 -----------------------------------------------------
 OT| Eigensolver reached convergence in 39 iterations
      -0.03028442
  
 HOMO - LUMO gap [eV] :    5.882938

 ENERGY| Total FORCE_EVAL ( QS ) energy [a.u.]:              -13.719716630529383

 --------  Informations at step =     1 ------------
  Optimization Method        =                 BFGS
  Total Energy               =       -13.7197166305
  Real energy change         =        -0.0302267254
  Predicted change in energy =        -0.0213143070
  Scaling factor             =         0.0000000000
  Step size                  =         0.2230099092
  Trust radius               =         0.4724315332
  Decrease in energy         =                  YES
  Used time                  =               56.337

  Convergence check :
  Max. step size             =         0.2230099092
  Conv. limit for step size  =         0.0100000000
  Convergence in step size   =                   NO
  RMS step size              =         0.1044445667
  Conv. limit for RMS step   =         0.0030000000
  Convergence in RMS step    =                   NO
  Max. gradient              =         0.0290951077
  Conv. limit for gradients  =         0.0010000000
  Conv. for gradients        =                   NO
  RMS gradient               =         0.0139649286
  Conv. limit for RMS grad.  =         0.0003000000
  Conv. for gradients        =                   NO
 ---------------------------------------------------
 Estimated peak process memory after this step [MiB]                        1793

 --------------------------
 OPTIMIZATION STEP:      2
 --------------------------

 Number of electrons:                                                         12
 Number of occupied orbitals:                                                  6
 Number of molecular orbitals:                                                 6

 Number of orbital functions:                                                 46
 Number of independent orbital functions:                                     46

 Extrapolation method: ASPC


 SCF WAVEFUNCTION OPTIMIZATION

  ----------------------------------- OT ---------------------------------------
  Minimizer      : DIIS                : direct inversion
                                         in the iterative subspace
                                         using   7 DIIS vectors
                                         safer DIIS on
  Preconditioner : FULL_SINGLE_INVERSE : inversion of 
                                         H + eS - 2*(Sc)(c^T*H*c+const)(Sc)^T
  Precond_solver : DEFAULT
  stepsize       :    0.08000000                  energy_gap     :    0.08000000
  eps_taylor     :   0.10000E-15                  max_taylor     :             4
  ----------------------------------- OT ---------------------------------------

  Step     Update method      Time    Convergence         Total energy    Change
  ------------------------------------------------------------------------------
     1 OT DIIS     0.80E-01    6.7     0.00394268       -13.7235483662 -1.37E+01
     2 OT DIIS     0.80E-01    7.3     0.00238610       -13.7238217301 -2.73E-04
     3 OT DIIS     0.80E-01    7.3     0.00060408       -13.7239875501 -1.66E-04
     4 OT DIIS     0.80E-01    7.3     0.00022963       -13.7239984083 -1.09E-05
     5 OT DIIS     0.80E-01    7.3     0.00006124       -13.7240000606 -1.65E-06

  *** SCF run converged in     5 steps ***


  Electronic density on regular grids:        -11.9025768985        0.0974231015
  Core density on regular grids:               12.0000000000       -0.0000000000
  Hard and soft densities (Lebedev):         -236.5448699177     -236.4474468419
  Total Rho_soft + Rho1_hard - Rho1_soft      -11.9999999743
  Total charge density (r-space):               0.0000000257
  Total Rho_soft + Rho0_soft (g-space):        -0.0000000125

  Overlap energy of the core charge distribution:               0.00000257124498
  Self energy of the core charge distribution:                -32.31191168900799
  Core Hamiltonian energy:                                     10.30852213707113
  Hartree energy:                                              25.27232733874049
  Exchange-correlation energy:                                 -4.81166214322109

  GAPW| Exc from hard and soft atomic rho1:                    -0.07115850915780
  GAPW| local Eh = 1 center integrals:                        -12.11011976627060

  Total energy:                                               -13.72400006060089

  outer SCF iter =    1 RMS gradient =   0.61E-04 energy =        -13.7240000606
  outer SCF loop converged in   1 iterations or    5 steps

  
  Eigenvalues of the occupied subspace spin            1
 ---------------------------------------------
      -0.68929560     -0.52460804     -0.42039647     -0.37482606
      -0.31258330     -0.24524955
 Fermi Energy [eV] :   -6.673580
  
  Lowest Eigenvalues of the unoccupied subspace spin            1
 -----------------------------------------------------
 OT| Eigensolver reached convergence in 39 iterations
      -0.02872040
  
 HOMO - LUMO gap [eV] :    5.892058

 ENERGY| Total FORCE_EVAL ( QS ) energy [a.u.]:              -13.724000167536783

 --------  Informations at step =     2 ------------
  Optimization Method        =                 BFGS
  Total Energy               =       -13.7240001675
  Real energy change         =        -0.0042835370
  Predicted change in energy =        -0.0054697180
  Scaling factor             =         0.0000000000
  Step size                  =         0.1392716070
  Trust radius               =         0.4724315332
  Decrease in energy         =                  YES
  Used time                  =               46.252

  Convergence check :
  Max. step size             =         0.1392716070
  Conv. limit for step size  =         0.0100000000
  Convergence in step size   =                   NO
  RMS step size              =         0.0658051838
  Conv. limit for RMS step   =         0.0030000000
  Convergence in RMS step    =                   NO
  Max. gradient              =         0.0079911933
  Conv. limit for gradients  =         0.0010000000
  Conv. for gradients        =                   NO
  RMS gradient               =         0.0047019289
  Conv. limit for RMS grad.  =         0.0003000000
  Conv. for gradients        =                   NO
 ---------------------------------------------------
 Estimated peak process memory after this step [MiB]                        1793

 --------------------------
 OPTIMIZATION STEP:      3
 --------------------------

 Number of electrons:                                                         12
 Number of occupied orbitals:                                                  6
 Number of molecular orbitals:                                                 6

 Number of orbital functions:                                                 46
 Number of independent orbital functions:                                     46

 Extrapolation method: ASPC


 SCF WAVEFUNCTION OPTIMIZATION

  ----------------------------------- OT ---------------------------------------
  Minimizer      : DIIS                : direct inversion
                                         in the iterative subspace
                                         using   7 DIIS vectors
                                         safer DIIS on
  Preconditioner : FULL_SINGLE_INVERSE : inversion of 
                                         H + eS - 2*(Sc)(c^T*H*c+const)(Sc)^T
  Precond_solver : DEFAULT
  stepsize       :    0.08000000                  energy_gap     :    0.08000000
  eps_taylor     :   0.10000E-15                  max_taylor     :             4
  ----------------------------------- OT ---------------------------------------

  Step     Update method      Time    Convergence         Total energy    Change
  ------------------------------------------------------------------------------
     1 OT DIIS     0.80E-01    6.7     0.00772684       -13.7228341908 -1.37E+01
     2 OT DIIS     0.80E-01    7.4     0.00431439       -13.7238445269 -1.01E-03
     3 OT DIIS     0.80E-01    7.4     0.00132988       -13.7243343687 -4.90E-04
     4 OT DIIS     0.80E-01    7.5     0.00039829       -13.7243866823 -5.23E-05
     5 OT DIIS     0.80E-01    8.4     0.00007555       -13.7243917948 -5.11E-06

  *** SCF run converged in     5 steps ***


  Electronic density on regular grids:        -11.9040368796        0.0959631204
  Core density on regular grids:               12.0000000000       -0.0000000000
  Hard and soft densities (Lebedev):         -235.3108816223     -235.2149185268
  Total Rho_soft + Rho1_hard - Rho1_soft      -11.9999999750
  Total charge density (r-space):               0.0000000250
  Total Rho_soft + Rho0_soft (g-space):        -0.0000000150

  Overlap energy of the core charge distribution:               0.00000203205583
  Self energy of the core charge distribution:                -32.31191168900799
  Core Hamiltonian energy:                                     10.24876778579195
  Hartree energy:                                              25.31723873772871
  Exchange-correlation energy:                                 -4.79346885135748

  GAPW| Exc from hard and soft atomic rho1:                    -0.06991723124133
  GAPW| local Eh = 1 center integrals:                        -12.11510257879286

  Total energy:                                               -13.72439179482316

  outer SCF iter =    1 RMS gradient =   0.76E-04 energy =        -13.7243917948
  outer SCF loop converged in   1 iterations or    5 steps

  
  Eigenvalues of the occupied subspace spin            1
 ---------------------------------------------
      -0.68795829     -0.52081223     -0.41857405     -0.37295960
      -0.31108916     -0.24528167
 Fermi Energy [eV] :   -6.674454
  
  Lowest Eigenvalues of the unoccupied subspace spin            1
 -----------------------------------------------------
 OT| Eigensolver reached convergence in 49 iterations
      -0.02890503
  
 HOMO - LUMO gap [eV] :    5.887908

 ENERGY| Total FORCE_EVAL ( QS ) energy [a.u.]:              -13.724391950102286

 --------  Informations at step =     3 ------------
  Optimization Method        =                 BFGS
  Total Energy               =       -13.7243919501
  Real energy change         =        -0.0003917826
  Predicted change in energy =        -0.0004436017
  Scaling factor             =         0.0000000000
  Step size                  =         0.0269242988
  Trust radius               =         0.4724315332
  Decrease in energy         =                  YES
  Used time                  =               48.103

  Convergence check :
  Max. step size             =         0.0269242988
  Conv. limit for step size  =         0.0100000000
  Convergence in step size   =                   NO
  RMS step size              =         0.0127590730
  Conv. limit for RMS step   =         0.0030000000
  Convergence in RMS step    =                   NO
  Max. gradient              =         0.0008013706
  Conv. limit for gradients  =         0.0010000000
  Conv. in gradients         =                  YES
  RMS gradient               =         0.0004268827
  Conv. limit for RMS grad.  =         0.0003000000
  Conv. for gradients        =                   NO
 ---------------------------------------------------
 Estimated peak process memory after this step [MiB]                        1793

 --------------------------
 OPTIMIZATION STEP:      4
 --------------------------

 Number of electrons:                                                         12
 Number of occupied orbitals:                                                  6
 Number of molecular orbitals:                                                 6

 Number of orbital functions:                                                 46
 Number of independent orbital functions:                                     46

 Extrapolation method: ASPC


 SCF WAVEFUNCTION OPTIMIZATION

  ----------------------------------- OT ---------------------------------------
  Minimizer      : DIIS                : direct inversion
                                         in the iterative subspace
                                         using   7 DIIS vectors
                                         safer DIIS on
  Preconditioner : FULL_SINGLE_INVERSE : inversion of 
                                         H + eS - 2*(Sc)(c^T*H*c+const)(Sc)^T
  Precond_solver : DEFAULT
  stepsize       :    0.08000000                  energy_gap     :    0.08000000
  eps_taylor     :   0.10000E-15                  max_taylor     :             4
  ----------------------------------- OT ---------------------------------------

  Step     Update method      Time    Convergence         Total energy    Change
  ------------------------------------------------------------------------------
     1 OT DIIS     0.80E-01    6.8     0.00894087       -13.7223488202 -1.37E+01
     2 OT DIIS     0.80E-01    7.5     0.00491808       -13.7236927680 -1.34E-03
     3 OT DIIS     0.80E-01    7.5     0.00153413       -13.7243210243 -6.28E-04
     4 OT DIIS     0.80E-01    8.0     0.00045474       -13.7243905196 -6.95E-05
     5 OT DIIS     0.80E-01    7.8     0.00008186       -13.7243972093 -6.69E-06

  *** SCF run converged in     5 steps ***


  Electronic density on regular grids:        -11.9037937755        0.0962062245
  Core density on regular grids:               12.0000000000       -0.0000000000
  Hard and soft densities (Lebedev):         -235.5969352189     -235.5007290195
  Total Rho_soft + Rho1_hard - Rho1_soft      -11.9999999749
  Total charge density (r-space):               0.0000000251
  Total Rho_soft + Rho0_soft (g-space):        -0.0000000145

  Overlap energy of the core charge distribution:               0.00000208737372
  Self energy of the core charge distribution:                -32.31191168900799
  Core Hamiltonian energy:                                     10.25652569296165
  Hartree energy:                                              25.31093318193210
  Exchange-correlation energy:                                 -4.79564263685495

  GAPW| Exc from hard and soft atomic rho1:                    -0.07010550862601
  GAPW| local Eh = 1 center integrals:                        -12.11419833709124

  Total energy:                                               -13.72439720931272

  outer SCF iter =    1 RMS gradient =   0.82E-04 energy =        -13.7243972093
  outer SCF loop converged in   1 iterations or    5 steps

  
  Eigenvalues of the occupied subspace spin            1
 ---------------------------------------------
      -0.68813659     -0.52105549     -0.41871348     -0.37315444
      -0.31105684     -0.24531975
 Fermi Energy [eV] :   -6.675490
  
  Lowest Eigenvalues of the unoccupied subspace spin            1
 -----------------------------------------------------
 OT| Eigensolver reached convergence in 49 iterations
      -0.02868123
  
 HOMO - LUMO gap [eV] :    5.895034

 ENERGY| Total FORCE_EVAL ( QS ) energy [a.u.]:              -13.724397421271565

 --------  Informations at step =     4 ------------
  Optimization Method        =                 BFGS
  Total Energy               =       -13.7243974213
  Real energy change         =        -0.0000054712
  Predicted change in energy =        -0.0000050032
  Scaling factor             =         0.0000000000
  Step size                  =         0.0027743078
  Trust radius               =         0.4724315332
  Decrease in energy         =                  YES
  Used time                  =               49.051

  Convergence check :
  Max. step size             =         0.0027743078
  Conv. limit for step size  =         0.0100000000
  Convergence in step size   =                  YES
  RMS step size              =         0.0013294520
  Conv. limit for RMS step   =         0.0030000000
  Convergence in RMS step    =                  YES
  Max. gradient              =         0.0003389271
  Conv. limit for gradients  =         0.0010000000
  Conv. in gradients         =                  YES
  RMS gradient               =         0.0001146719
  Conv. limit for RMS grad.  =         0.0003000000
  Conv. in RMS gradients     =                  YES
 ---------------------------------------------------
 Estimated peak process memory after this step [MiB]                        1793

 *******************************************************************************
 ***                    GEOMETRY OPTIMIZATION COMPLETED                      ***
 *******************************************************************************

                    Reevaluating energy at the minimum

 Number of electrons:                                                         12
 Number of occupied orbitals:                                                  6
 Number of molecular orbitals:                                                 6

 Number of orbital functions:                                                 46
 Number of independent orbital functions:                                     46

 Extrapolation method: ASPC


 SCF WAVEFUNCTION OPTIMIZATION

  ----------------------------------- OT ---------------------------------------
  Minimizer      : DIIS                : direct inversion
                                         in the iterative subspace
                                         using   7 DIIS vectors
                                         safer DIIS on
  Preconditioner : FULL_SINGLE_INVERSE : inversion of 
                                         H + eS - 2*(Sc)(c^T*H*c+const)(Sc)^T
  Precond_solver : DEFAULT
  stepsize       :    0.08000000                  energy_gap     :    0.08000000
  eps_taylor     :   0.10000E-15                  max_taylor     :             4
  ----------------------------------- OT ---------------------------------------

  Step     Update method      Time    Convergence         Total energy    Change
  ------------------------------------------------------------------------------
     1 OT DIIS     0.80E-01    8.0     0.00608173       -13.7234578866 -1.37E+01
     2 OT DIIS     0.80E-01    7.5     0.00332774       -13.7240788349 -6.21E-04
     3 OT DIIS     0.80E-01    7.5     0.00102268       -13.7243640177 -2.85E-04
     4 OT DIIS     0.80E-01    7.5     0.00029954       -13.7243944405 -3.04E-05
     5 OT DIIS     0.80E-01    7.4     0.00005538       -13.7243973296 -2.89E-06

  *** SCF run converged in     5 steps ***


  Electronic density on regular grids:        -11.9038634745        0.0961365255
  Core density on regular grids:               12.0000000000       -0.0000000000
  Hard and soft densities (Lebedev):         -235.5763098508     -235.4801733504
  Total Rho_soft + Rho1_hard - Rho1_soft      -11.9999999749
  Total charge density (r-space):               0.0000000251
  Total Rho_soft + Rho0_soft (g-space):        -0.0000000145

  Overlap energy of the core charge distribution:               0.00000208737372
  Self energy of the core charge distribution:                -32.31191168900799
  Core Hamiltonian energy:                                     10.25578300778683
  Hartree energy:                                              25.31169656680387
  Exchange-correlation energy:                                 -4.79552341403286

  GAPW| Exc from hard and soft atomic rho1:                    -0.07005987674446
  GAPW| local Eh = 1 center integrals:                        -12.11438401174257

  Total energy:                                               -13.72439732956346

  outer SCF iter =    1 RMS gradient =   0.55E-04 energy =        -13.7243973296
  outer SCF loop converged in   1 iterations or    5 steps

  
  Eigenvalues of the occupied subspace spin            1
 ---------------------------------------------
      -0.68820918     -0.52109291     -0.41876226     -0.37321965
      -0.31110019     -0.24537293
 Fermi Energy [eV] :   -6.676937
  
  Lowest Eigenvalues of the unoccupied subspace spin            1
 -----------------------------------------------------
 OT| Eigensolver reached convergence in 49 iterations
      -0.02872225
  
 HOMO - LUMO gap [eV] :    5.895365

 ENERGY| Total FORCE_EVAL ( QS ) energy [a.u.]:              -13.724397329563459

 -------------------------------------------------------------------------------
 -                                                                             -
 -                                DBCSR STATISTICS                             -
 -                                                                             -
 -------------------------------------------------------------------------------
 COUNTER                                    TOTAL       BLAS       SMM       ACC
 flops     6 x     1 x     6                  720     100.0%      0.0%      0.0%
 flops     1 x     1 x     1                 2524     100.0%      0.0%      0.0%
 flops     6 x     1 x    46                 5520     100.0%      0.0%      0.0%
 flops    46 x     1 x     6                 5520     100.0%      0.0%      0.0%
 flops     5 x     6 x     6                 8640     100.0%      0.0%      0.0%
 flops    13 x     6 x     6                11232     100.0%      0.0%      0.0%
 flops     7 x     1 x     7                13720     100.0%      0.0%      0.0%
 flops     7 x     7 x    46                45080     100.0%      0.0%      0.0%
 flops     1 x     1 x    46                49128     100.0%      0.0%      0.0%
 flops    46 x     1 x     1                76176     100.0%      0.0%      0.0%
 flops     7 x     1 x    46                90160     100.0%      0.0%      0.0%
 flops    46 x     1 x     7                90160     100.0%      0.0%      0.0%
 flops     6 x     6 x     6               145152     100.0%      0.0%      0.0%
 flops     5 x     5 x     6               171000     100.0%      0.0%      0.0%
 flops    13 x     5 x     6               177840     100.0%      0.0%      0.0%
 flops     5 x    13 x     6               177840     100.0%      0.0%      0.0%
 flops    46 x     7 x    46               296240     100.0%      0.0%      0.0%
 flops    13 x    13 x     6               346788     100.0%      0.0%      0.0%
 flops     5 x     1 x     5               451200     100.0%      0.0%      0.0%
 flops     6 x     6 x    46               563040     100.0%      0.0%      0.0%
 flops    13 x     1 x     5               586560     100.0%      0.0%      0.0%
 flops     5 x     1 x    13               586560     100.0%      0.0%      0.0%
 flops    46 x     1 x    46               592480     100.0%      0.0%      0.0%
 flops    46 x     6 x     6               642528     100.0%      0.0%      0.0%
 flops     5 x     6 x     5               657600     100.0%      0.0%      0.0%
 flops    13 x     1 x    13               762528     100.0%      0.0%      0.0%
 flops    13 x     6 x     5               854880     100.0%      0.0%      0.0%
 flops     5 x     6 x    13               854880     100.0%      0.0%      0.0%
 flops    13 x     6 x    13              1111344     100.0%      0.0%      0.0%
 flops    46 x     6 x    46              1168032     100.0%      0.0%      0.0%
 flops inhomo. stacks                           0       0.0%      0.0%      0.0%
 flops total                        10.545072E+06     100.0%      0.0%      0.0%
 flops max/rank                     10.545072E+06     100.0%      0.0%      0.0%
 matmuls inhomo. stacks                         0       0.0%      0.0%      0.0%
 matmuls total                              30449     100.0%      0.0%      0.0%
 number of processed stacks                  7024     100.0%      0.0%      0.0%
 average stack size                                     4.3       0.0       0.0
 marketing flops                    11.140660E+06
 -------------------------------------------------------------------------------
 # multiplications                           4770
 max memory usage/rank               1.823158E+09
 # max total images/rank                        1
 # max 3D layers                                1
 # MPI messages exchanged                       0
 -------------------------------------------------------------------------------

 -------------------------------------------------------------------------------
 -                                                                             -
 -                                DBM STATISTICS                               -
 -                                                                             -
 -------------------------------------------------------------------------------
    M  x    N  x    K                                          COUNT     PERCENT
 -------------------------------------------------------------------------------

 -------------------------------------------------------------------------------
 -                                                                             -
 -                                GRID STATISTICS                              -
 -                                                                             -
 -------------------------------------------------------------------------------
 LP    KERNEL             BACKEND                              COUNT     PERCENT
 2     collocate ortho    REF                                  16036      23.55%
 2     integrate ortho    REF                                  13790      20.25%
 3     integrate ortho    REF                                  13088      19.22%
 3     collocate ortho    REF                                  13064      19.18%
 4     integrate ortho    REF                                   5740       8.43%
 4     collocate ortho    REF                                   4968       7.29%
 5     integrate ortho    REF                                    540       0.79%
 1     collocate ortho    REF                                    336       0.49%
 2     collocate general  REF                                    270       0.40%
 2     integrate general  REF                                    240       0.35%
 3     integrate general  REF                                     30       0.04%
 -------------------------------------------------------------------------------

 MEMORY| Estimated peak process memory [MiB]                                1793

 -------------------------------------------------------------------------------
 ----                             MULTIGRID INFO                            ----
 -------------------------------------------------------------------------------
 count for grid        1:           6147          cutoff [a.u.]          200.00
 count for grid        2:           4846          cutoff [a.u.]           66.67
 count for grid        3:           3226          cutoff [a.u.]           22.22
 count for grid        4:           3486          cutoff [a.u.]            7.41
 total gridlevel count  :          17705

 -------------------------------------------------------------------------------
 -                                                                             -
 -                           R E F E R E N C E S                               -
 -                                                                             -
 -------------------------------------------------------------------------------
 
 CP2K version 2023.1 (Development Version), the CP2K developers group (2023).
 CP2K is freely available from https://www.cp2k.org/ .

 Kuehne,Thomas D.; Iannuzzi,Marcella; Del Ben,Mauro;
 Rybkin,Vladimir V.; Seewald,Patrick; Stein,Frederick; Laino,Teodoro;
 Khaliullin,Rustam Z.; Schuett,Ole; Schiffmann,Florian; Golze,Dorothea;
 Wilhelm,Jan; Chulkov,Sergey; Bani-Hashemian,Mohammad Hossein;
 Weber,Valery; Borstnik,Urban; Taillefumier,Mathieu;
 Jakobovits,Alice Shoshana; Lazzaro,Alfio; Pabst,Hans; Mueller,Tiziano;
 Schade,Robert; Guidon,Manuel; Andermatt,Samuel; Holmberg,Nico;
 Schenter,Gregory K.; Hehn,Anna; Bussy,Augustin; Belleflamme,Fabian;
 Tabacchi,Gloria; Gloess,Andreas; Lass,Michael; Bethune,Iain;
 Mundy,Christopher J.; Plessl,Christian; Watkins,Matt;
 VandeVondele,Joost; Krack,Matthias; Hutter,Juerg. 
 The Journal of Chemical Physics, 152 (19), (2020). 
 CP2K: An electronic structure and molecular dynamics software package -
 Quickstep: Efficient and accurate electronic structure calculations.
 https://doi.org/10.1063/5.0007045

 Schuett, Ole; Messmer, Peter; Hutter, Juerg; VandeVondele, Joost. 
 Electronic Structure Calculations on Graphics Processing Units, John
 Wiley & Sons, Ltd, 173-190 (2016). 
 GPU-Accelerated Sparse Matrix-Matrix Multiplication for
 Linear Scaling Density Functional Theory.
 https://doi.org/10.1002/9781118670712.ch8

 Borstnik, U; VandeVondele, J; Weber, V; Hutter, J. 
 PARALLEL COMPUTING, 40 (5-6), 47-58 (2014). 
 Sparse matrix multiplication: The distributed block-compressed sparse
 row library.
 https://doi.org/10.1016/j.parco.2014.03.012

 Hutter, J; Iannuzzi, M; Schiffmann, F; VandeVondele, J. 
 WIREs Comput Mol Sci., 4 (1), 15-25 (2014). 
 CP2K: atomistic simulations of condensed matter systems.
 https://doi.org/10.1002/wcms.1159

 VandeVondele, J; Hutter, J. 
 JOURNAL OF CHEMICAL PHYSICS, 127 (11), 114105 (2007). 
 Gaussian basis sets for accurate calculations on molecular systems in
 gas and condensed phases.
 https://doi.org/10.1063/1.2770708

 Genovese, L; Deutsch, T; Goedecker, S. 
 JOURNAL OF CHEMICAL PHYSICS, 127 (5), 054704 (2007). 
 Efficient and accurate three-dimensional Poisson solver for surface
 problems.
 https://doi.org/10.1063/1.2754685

 Kuhne, TD; Krack, M; Mohamed, FR; Parrinello, M. 
 PHYSICAL REVIEW LETTERS, 98 (6), 066401 (2007). 
 Efficient and accurate Car-Parrinello-like approach to
 Born-Oppenheimer molecular dynamics.
 https://doi.org/10.1103/PhysRevLett.98.066401

 Genovese, L; Deutsch, T; Neelov, A; Goedecker, S; Beylkin, G. 
 JOURNAL OF CHEMICAL PHYSICS, 125 (7), 074105 (2006). 
 Efficient solution of Poisson's equation with free boundary conditions.
 https://doi.org/10.1063/1.2335442

 Krack, M. 
 THEORETICAL CHEMISTRY ACCOUNTS, 114 (1-3), 145-152 (2005). 
 Pseudopotentials for H to Kr optimized for gradient-corrected
 exchange-correlation functionals.
 https://doi.org/10.1007/s00214-005-0655-y

 Frigo, M; Johnson, SG. 
 PROCEEDINGS OF THE IEEE, 93 (2), 216-231 (2005). 
 The design and implementation of FFTW3.
 https://doi.org/10.1109/JPROC.2004.840301

 Kolafa, J. 
 JOURNAL OF COMPUTATIONAL CHEMISTRY, 25 (3), 335-342 (2004). 
 Time-reversible always stable predictor-corrector method for
 molecular dynamics of polarizable molecules.
 https://doi.org/10.1002/jcc.10385

 VandeVondele, J; Hutter, J. 
 JOURNAL OF CHEMICAL PHYSICS, 118 (10), 4365-4369 (2003). 
 An efficient orbital transformation method for electronic structure
 calculations.
 https://doi.org/10.1063/1.1543154

 Lippert, G; Hutter, J; Parrinello, M. 
 THEORETICAL CHEMISTRY ACCOUNTS, 103 (2), 124-140 (1999). 
 The Gaussian and augmented-plane-wave density functional method for ab
 initio molecular dynamics simulations.
 https://doi.org/10.1007/s002140050523

 Krack, M; Parrinello, M. 
 PHYSICAL CHEMISTRY CHEMICAL PHYSICS, 2 (10), 2105-2112 (2000). 
 All-electron ab-initio molecular dynamics.
 https://doi.org/10.1039/b001167n

 Hartwigsen, C; Goedecker, S; Hutter, J. 
 PHYSICAL REVIEW B, 58 (7), 3641-3662 (1998). 
 Relativistic separable dual-space Gaussian pseudopotentials from H to Rn.
 https://doi.org/10.1103/PhysRevB.58.3641

 Perdew, JP; Burke, K; Ernzerhof, M. 
 PHYSICAL REVIEW LETTERS, 77 (18), 3865-3868 (1996). 
 Generalized gradient approximation made simple.
 https://doi.org/10.1103/PhysRevLett.77.3865

 Goedecker, S; Teter, M; Hutter, J. 
 PHYSICAL REVIEW B, 54 (3), 1703-1710 (1996). 
 Separable dual-space Gaussian pseudopotentials.
 https://doi.org/10.1103/PhysRevB.54.1703


 -------------------------------------------------------------------------------
 -                                                                             -
 -                                T I M I N G                                  -
 -                                                                             -
 -------------------------------------------------------------------------------
 SUBROUTINE                       CALLS  ASD         SELF TIME        TOTAL TIME
                                MAXIMUM       AVERAGE  MAXIMUM  AVERAGE  MAXIMUM
 CP2K                                 1  1.0    0.117    0.117  368.675  368.675
 cp_geo_opt                           1  2.0    0.000    0.000  365.797  365.797
 geoopt_bfgs                          1  3.0    0.001    0.001  365.797  365.797
 cp_eval_at                           6  4.0    0.001    0.001  365.747  365.747
 qs_energies                          6  5.8    0.000    0.000  330.802  330.802
 qs_forces                            5  5.0    0.000    0.000  324.015  324.015
 rebuild_ks_matrix                   45  9.6    0.000    0.000  317.176  317.176
 qs_ks_build_kohn_sham_matrix        45 10.6    0.006    0.006  317.176  317.176
 scf_env_do_scf                       6  6.8    0.000    0.000  311.755  311.755
 qs_ks_update_qs_env                 46  8.9    0.000    0.000  282.289  282.289
 scf_env_do_scf_inner_loop           40  7.9    0.003    0.003  266.560  266.560
 pw_transfer                       1010 13.6    0.051    0.051  195.416  195.416
 fft_wrap_pw1pw2                    965 14.6    0.007    0.007  195.008  195.008
 fft_wrap_pw1pw2_200                656 15.9   17.550   17.550  190.664  190.664
 qs_vxc_create                       45 11.6    0.001    0.001  183.155  183.155
 xc_vxc_pw_create                    45 12.6    2.065    2.065  183.154  183.154
 xc_rho_set_and_dset_create          45 13.6    1.901    1.901  119.842  119.842
 fft3d_s                            966 16.5   94.121   94.121   94.143   94.143
 xc_pw_derive                       270 14.6    0.002    0.002   86.207   86.207
 pw_poisson_solve                    45 11.6    8.558    8.558   79.676   79.676
 xc_functional_eval                 585 13.6    0.001    0.001   78.013   78.013
 pbe_lda_eval                       585 14.6   78.011   78.011   78.011   78.011
 xc_pw_divergence                    45 13.6    0.001    0.001   60.435   60.435
 pw_gather_s                        502 16.2   47.914   47.914   47.914   47.914
 init_scf_loop                        6  7.8    0.000    0.000   45.194   45.194
 pw_scatter_s                       463 17.0   35.198   35.198   35.198   35.198
 qs_ks_update_qs_env_forces           5  6.0    0.000    0.000   34.889   34.889
 ps_wavelet_solve                    45 12.6   33.101   33.101   34.142   34.142
 qs_rho_update_rho_low               46  9.0    0.001    0.001   33.767   33.767
 calculate_rho_elec                  46 10.0    1.124    1.124   33.740   33.740
 density_rs2pw                       46 11.0    0.002    0.002   30.557   30.557
 sum_up_and_integrate                45 11.6    1.322    1.322   20.312   20.312
 integrate_v_rspace                  45 12.6    0.002    0.002   18.990   18.990
 prepare_gapw_den                    45 11.6    0.001    0.001   17.740   17.740
 potential_pw2rs                     45 13.6    0.036    0.036   17.421   17.421
 put_rho0_on_grid                    45 12.6    1.113    1.113   17.382   17.382
 scf_post_calculation_gpw             6  6.8    0.001    0.001   14.257   14.257
 calculate_wavefunction              12  8.8    0.034    0.034    7.792    7.792
 -------------------------------------------------------------------------------

 The number of warnings for this run is : 1
 
 -------------------------------------------------------------------------------
  **** **** ******  **  PROGRAM ENDED AT                 2023-04-05 11:13:06.363
 ***** ** ***  *** **   PROGRAM RAN ON                                eu-a2p-294
 **    ****   ******    PROGRAM RAN BY                                 jbachmann
 ***** **    ** ** **   PROGRAM PROCESS ID                                 84858
  **** **  *******  **  PROGRAM STOPPED IN /cluster/home/jbachmann/Molecular-and
                                           -Materials-Modelling-FS2023/exercise7
                                           /PBE/DZVP
