 DBCSR| CPU Multiplication driver                                           BLAS (U)
 DBCSR| Multrec recursion limit                                              512 (U)
 DBCSR| Multiplication stack size                                           1000 (D)
 DBCSR| Maximum elements for images                                    UNLIMITED (U)
 DBCSR| Multiplicative factor virtual images                                   1 (U)
 DBCSR| Use multiplication densification                                       T (D)
 DBCSR| Multiplication size stacks                                             3 (U)
 DBCSR| Use memory pool for CPU allocation                                     F (U)
 DBCSR| OMP: Current number of threads                                         1
 DBCSR| OMP: Max number of threads                                             1
 DBCSR| Split modifier for TAS multiplication algorithm                  1.0E+00 (U)


  **** **** ******  **  PROGRAM STARTED AT               2023-04-05 11:06:53.879
 ***** ** ***  *** **   PROGRAM STARTED ON                            eu-a2p-488
 **    ****   ******    PROGRAM STARTED BY                             jbachmann
 ***** **    ** ** **   PROGRAM PROCESS ID                                 94444
  **** **  *******  **  PROGRAM STARTED IN /cluster/home/jbachmann/Molecular-and
                                           -Materials-Modelling-FS2023/exercise7
                                           /PBE/DZVP

 CP2K| version string:                 CP2K version 2023.1 (Development Version)
 CP2K| source code revision number:                                  git:dc34ec9
 CP2K| cp2kflags: omp libint fftw3 libxc max_contr=4 spglib libvori libbqb      
 CP2K| is freely available from                            https://www.cp2k.org/
 CP2K| Program compiled at                         Mon Mar 27 23:22:21 CEST 2023
 CP2K| Program compiled on                                           eu-g5-025-4
 CP2K| Program compiled for                              Linux-gnu-x86_64-static
 CP2K| Data directory path      /cluster/apps/nss/gcc-6.3.0/cp2k/8.2/x86_64/data
 CP2K| Input file name                                                   H2O.inp

 GLOBAL| Force Environment number                                              1
 GLOBAL| Basis set file name                                        BASIS_MOLOPT
 GLOBAL| Potential file name                                      GTH_POTENTIALS
 GLOBAL| MM Potential file name                                     MM_POTENTIAL
 GLOBAL| Coordinate file name                                      ../../H2O.xyz
 GLOBAL| Method name                                                        CP2K
 GLOBAL| Project name                                                        H2O
 GLOBAL| Run type                                                        GEO_OPT
 GLOBAL| FFT library                                                       FFTW3
 GLOBAL| Diagonalization library                                       ScaLAPACK
 GLOBAL| DGEMM library                                                      BLAS
 GLOBAL| Orthonormality check for eigenvectors                          DISABLED
 GLOBAL| Matrix multiplication library                                 ScaLAPACK
 GLOBAL| All-to-all communication in single precision                          F
 GLOBAL| FFTs using library dependent lengths                                  F
 GLOBAL| Grid backend                                                       AUTO
 GLOBAL| Global print level                                                  LOW
 GLOBAL| MPI I/O enabled                                                       T
 GLOBAL| Total number of message passing processes                             1
 GLOBAL| Number of threads for this process                                    1
 GLOBAL| This output is from process                                           0
 GLOBAL| Stack size for threads created by OpenMP (OMP_STACKSIZE)        default
 GLOBAL| CPU model name                          AMD EPYC 7763 64-Core Processor

 MEMORY| system memory details [Kb]
 MEMORY|                        rank 0           min           max       average
 MEMORY| MemTotal            261505488     261505488     261505488     261505488
 MEMORY| MemFree             222414148     222414148     222414148     222414148
 MEMORY| Buffers                138048        138048        138048        138048
 MEMORY| Cached               14940812      14940812      14940812      14940812
 MEMORY| Slab                  1909920       1909920       1909920       1909920
 MEMORY| SReclaimable           752176        752176        752176        752176
 MEMORY| MemLikelyFree       238245184     238245184     238245184     238245184


 GENERATE|  Preliminary Number of Bonds generated:                             0
 GENERATE|  Achieved consistency in connectivity generation.

 *******************************************************************************
 *******************************************************************************
 **                                                                           **
 **     #####                         ##              ##                      **
 **    ##   ##            ##          ##              ##                      **
 **   ##     ##                       ##            ######                    **
 **   ##     ##  ##   ##  ##   #####  ##  ##   ####   ##    #####    #####    **
 **   ##     ##  ##   ##  ##  ##      ## ##   ##      ##   ##   ##  ##   ##   **
 **   ##  ## ##  ##   ##  ##  ##      ####     ###    ##   ######   ######    **
 **    ##  ###   ##   ##  ##  ##      ## ##      ##   ##   ##       ##        **
 **     #######   #####   ##   #####  ##  ##  ####    ##    #####   ##        **
 **           ##                                                    ##        **
 **                                                                           **
 **                                                ... make the atoms dance   **
 **                                                                           **
 **            Copyright (C) by CP2K developers group (2000-2023)             **
 **                      J. Chem. Phys. 152, 194103 (2020)                    **
 **                                                                           **
 *******************************************************************************


 TOTAL NUMBERS AND MAXIMUM NUMBERS

  Total number of            - Atomic kinds:                                   2
                             - Atoms:                                          3
                             - Shell sets:                                     3
                             - Shells:                                        11
                             - Primitive Cartesian functions:                 21
                             - Cartesian basis functions:                     24
                             - Spherical basis functions:                     23

  Maximum angular momentum of- Orbital basis functions:                        2
                             - Local part of the GTH pseudopotential:          2
                             - Non-local part of the GTH pseudopotential:      0


 SCF PARAMETERS         Density guess:                                   RESTART
                        --------------------------------------------------------
                        max_scf:                                              50
                        max_scf_history:                                       0
                        max_diis:                                              4
                        --------------------------------------------------------
                        eps_scf:                                        1.00E-04
                        eps_scf_history:                                0.00E+00
                        eps_diis:                                       1.00E-01
                        eps_eigval:                                     1.00E-05
                        --------------------------------------------------------
                        level_shift [a.u.]:                             0.000000
                        --------------------------------------------------------
                        Outer loop SCF in use 
                        No variables optimised in outer loop
                        eps_scf                                         1.00E-04
                        max_scf                                              500
                        No outer loop optimization
                        step_size                                       5.00E-01

 PW_GRID| Information for grid number                                          1
 PW_GRID| Cutoff [a.u.]                                                    200.0
 PW_GRID| spherical cutoff:                                                   NO
 PW_GRID|   Bounds   1            -96      95                Points:         192
 PW_GRID|   Bounds   2            -96      95                Points:         192
 PW_GRID|   Bounds   3            -96      95                Points:         192
 PW_GRID| Volume element (a.u.^3)  0.3218E-02     Volume (a.u.^3)     22775.6292
 PW_GRID| Grid span                                                    FULLSPACE

 PW_GRID| Information for grid number                                          2
 PW_GRID| Number of the reference grid                                         1
 PW_GRID| Cutoff [a.u.]                                                     66.7
 PW_GRID| spherical cutoff:                                                   NO
 PW_GRID|   Bounds   1            -54      53                Points:         108
 PW_GRID|   Bounds   2            -54      53                Points:         108
 PW_GRID|   Bounds   3            -54      53                Points:         108
 PW_GRID| Volume element (a.u.^3)  0.1808E-01     Volume (a.u.^3)     22775.6292
 PW_GRID| Grid span                                                    FULLSPACE

 PW_GRID| Information for grid number                                          3
 PW_GRID| Number of the reference grid                                         1
 PW_GRID| Cutoff [a.u.]                                                     22.2
 PW_GRID| spherical cutoff:                                                   NO
 PW_GRID|   Bounds   1            -32      31                Points:          64
 PW_GRID|   Bounds   2            -32      31                Points:          64
 PW_GRID|   Bounds   3            -32      31                Points:          64
 PW_GRID| Volume element (a.u.^3)  0.8688E-01     Volume (a.u.^3)     22775.6292
 PW_GRID| Grid span                                                    FULLSPACE

 PW_GRID| Information for grid number                                          4
 PW_GRID| Number of the reference grid                                         1
 PW_GRID| Cutoff [a.u.]                                                      7.4
 PW_GRID| spherical cutoff:                                                   NO
 PW_GRID|   Bounds   1            -18      17                Points:          36
 PW_GRID|   Bounds   2            -18      17                Points:          36
 PW_GRID|   Bounds   3            -18      17                Points:          36
 PW_GRID| Volume element (a.u.^3)  0.4882         Volume (a.u.^3)     22775.6292
 PW_GRID| Grid span                                                    FULLSPACE

 POISSON| Solver                                                         WAVELET
 POISSON| Wavelet| Scaling function                                           40
 POISSON| Periodicity                                                       NONE

 RS_GRID| Information for grid number                                          1
 RS_GRID|   Bounds   1            -96      95                Points:         192
 RS_GRID|   Bounds   2            -96      95                Points:         192
 RS_GRID|   Bounds   3            -96      95                Points:         192

 RS_GRID| Information for grid number                                          2
 RS_GRID|   Bounds   1            -54      53                Points:         108
 RS_GRID|   Bounds   2            -54      53                Points:         108
 RS_GRID|   Bounds   3            -54      53                Points:         108

 RS_GRID| Information for grid number                                          3
 RS_GRID|   Bounds   1            -32      31                Points:          64
 RS_GRID|   Bounds   2            -32      31                Points:          64
 RS_GRID|   Bounds   3            -32      31                Points:          64

 RS_GRID| Information for grid number                                          4
 RS_GRID|   Bounds   1            -18      17                Points:          36
 RS_GRID|   Bounds   2            -18      17                Points:          36
 RS_GRID|   Bounds   3            -18      17                Points:          36

 BFGS| Use rational function optimization for step estimation:                NO
 BFGS| Use model Hessian for initial guess:                                  YES
 BFGS| Restart Hessian:                                                       NO
 BFGS| Trust radius:                                                       0.472

 *******************************************************************************
 ***                     STARTING GEOMETRY OPTIMIZATION                      ***
 ***                                   BFGS                                  ***
 *******************************************************************************

 Number of electrons:                                                          8
 Number of occupied orbitals:                                                  4
 Number of molecular orbitals:                                                 4

 Number of orbital functions:                                                 23
 Number of independent orbital functions:                                     23

 Extrapolation method: initial_guess

 *** WARNING in qs_initial_guess.F:305 :: User requested to restart the    ***
 *** wavefunction from the file named: H2O-RESTART.wfn. This file does not ***
 *** exist. Please check the existence of the file or change properly the  ***
 *** value of the keyword WFN_RESTART_FILE_NAME. Calculation continues     ***
 *** using ATOMIC GUESS.                                                   ***



 SCF WAVEFUNCTION OPTIMIZATION

  ----------------------------------- OT ---------------------------------------
  Minimizer      : DIIS                : direct inversion
                                         in the iterative subspace
                                         using   7 DIIS vectors
                                         safer DIIS on
  Preconditioner : FULL_SINGLE_INVERSE : inversion of 
                                         H + eS - 2*(Sc)(c^T*H*c+const)(Sc)^T
  Precond_solver : DEFAULT
  stepsize       :    0.08000000                  energy_gap     :    0.08000000
  eps_taylor     :   0.10000E-15                  max_taylor     :             4
  ----------------------------------- OT ---------------------------------------

  Step     Update method      Time    Convergence         Total energy    Change
  ------------------------------------------------------------------------------
     1 OT DIIS     0.80E-01    9.4     0.33092929       -16.1376006137 -1.61E+01
     2 OT DIIS     0.80E-01    8.1     0.43120847       -16.2656207276 -1.28E-01
     3 OT DIIS     0.80E-01    7.6     0.19106032       -16.6346029219 -3.69E-01
     4 OT DIIS     0.80E-01    7.6     0.14554134       -16.7991929719 -1.65E-01
     5 OT DIIS     0.80E-01    7.4     0.08713570       -16.9294853440 -1.30E-01
     6 OT DIIS     0.80E-01    7.4     0.05696502       -16.9516107328 -2.21E-02
     7 OT DIIS     0.80E-01    7.6     0.03539709       -16.9894387982 -3.78E-02
     8 OT DIIS     0.80E-01    7.3     0.01811587       -16.9989642942 -9.53E-03
     9 OT DIIS     0.80E-01    7.3     0.02371941       -16.9987111775  2.53E-04
    10 OT DIIS     0.80E-01    7.1     0.01843129       -16.9997216001 -1.01E-03
    11 OT DIIS     0.80E-01    7.2     0.00772840       -17.0016837224 -1.96E-03
    12 OT DIIS     0.80E-01    7.3     0.00315094       -17.0019069533 -2.23E-04
    13 OT DIIS     0.80E-01    7.2     0.00133672       -17.0019950605 -8.81E-05
    14 OT DIIS     0.80E-01    7.1     0.00082125       -17.0020211536 -2.61E-05
    15 OT DIIS     0.80E-01    7.1     0.00041891       -17.0020309064 -9.75E-06
    16 OT DIIS     0.80E-01    7.1     0.00020531       -17.0020323578 -1.45E-06
    17 OT DIIS     0.80E-01    7.1     0.00018023       -17.0020327405 -3.83E-07
    18 OT DIIS     0.80E-01    7.0     0.00006836       -17.0020329566 -2.16E-07

  *** SCF run converged in    18 steps ***


  Electronic density on regular grids:         -7.7267582298        0.2732417702
  Core density on regular grids:                8.0000000000       -0.0000000000
  Hard and soft densities (Lebedev):          -21.1782701645      -20.9050282058
  Total Rho_soft + Rho1_hard - Rho1_soft       -8.0000001884
  Total charge density (r-space):              -0.0000001884
  Total Rho_soft + Rho0_soft (g-space):        -0.0000002146

  Overlap energy of the core charge distribution:               0.00000000000000
  Self energy of the core charge distribution:                -44.34715499673765
  Core Hamiltonian energy:                                     12.09459962415589
  Hartree energy:                                              20.98865809964677
  Exchange-correlation energy:                                 -3.64696217735981

  GAPW| Exc from hard and soft atomic rho1:                    -0.27111488147119
  GAPW| local Eh = 1 center integrals:                         -1.82005862479119

  Total energy:                                               -17.00203295655719

  outer SCF iter =    1 RMS gradient =   0.68E-04 energy =        -17.0020329566
  outer SCF loop converged in   1 iterations or   18 steps

  
  Eigenvalues of the occupied subspace spin            1
 ---------------------------------------------
      -0.80067761     -0.37803271     -0.26132114     -0.22616669
 Fermi Energy [eV] :   -6.154309
  
  Lowest Eigenvalues of the unoccupied subspace spin            1
 -----------------------------------------------------
 OT| Eigensolver reached convergence in 35 iterations
      -0.17186395
  
 HOMO - LUMO gap [eV] :    1.477653

 ENERGY| Total FORCE_EVAL ( QS ) energy [a.u.]:              -17.002033009877564

 --------  Informations at step =     0 ------------
  Optimization Method        =                 BFGS
  Total Energy               =       -17.0020330099
  Used time                  =              144.537
 ---------------------------------------------------

 --------------------------
 OPTIMIZATION STEP:      1
 --------------------------

  Step is scaled; Scaling factor =  0.56711

 Number of electrons:                                                          8
 Number of occupied orbitals:                                                  4
 Number of molecular orbitals:                                                 4

 Number of orbital functions:                                                 23
 Number of independent orbital functions:                                     23

 Extrapolation method: ASPC


 SCF WAVEFUNCTION OPTIMIZATION

  ----------------------------------- OT ---------------------------------------
  Minimizer      : DIIS                : direct inversion
                                         in the iterative subspace
                                         using   7 DIIS vectors
                                         safer DIIS on
  Preconditioner : FULL_SINGLE_INVERSE : inversion of 
                                         H + eS - 2*(Sc)(c^T*H*c+const)(Sc)^T
  Precond_solver : DEFAULT
  stepsize       :    0.08000000                  energy_gap     :    0.08000000
  eps_taylor     :   0.10000E-15                  max_taylor     :             4
  ----------------------------------- OT ---------------------------------------

  Step     Update method      Time    Convergence         Total energy    Change
  ------------------------------------------------------------------------------
     1 OT DIIS     0.80E-01    6.5     0.04109118       -17.0892663908 -1.71E+01
     2 OT DIIS     0.80E-01    7.1     0.02210410       -17.0957855824 -6.52E-03
     3 OT DIIS     0.80E-01    7.0     0.01272006       -17.0974890847 -1.70E-03
     4 OT DIIS     0.80E-01    7.2     0.00563976       -17.0985715292 -1.08E-03
     5 OT DIIS     0.80E-01    7.0     0.00188970       -17.0988934858 -3.22E-04
     6 OT DIIS     0.80E-01    7.0     0.00037155       -17.0989317951 -3.83E-05
     7 OT DIIS     0.80E-01    7.0     0.00018164       -17.0989328691 -1.07E-06
     8 OT DIIS     0.80E-01    7.0     0.00003844       -17.0989330214 -1.52E-07

  *** SCF run converged in     8 steps ***


  Electronic density on regular grids:         -7.7031568940        0.2968431060
  Core density on regular grids:                8.0000000000       -0.0000000000
  Hard and soft densities (Lebedev):          -35.7929319067      -35.4960886513
  Total Rho_soft + Rho1_hard - Rho1_soft       -8.0000001494
  Total charge density (r-space):              -0.0000001494
  Total Rho_soft + Rho0_soft (g-space):        -0.0000001760

  Overlap energy of the core charge distribution:               0.00000000000006
  Self energy of the core charge distribution:                -44.34715499673765
  Core Hamiltonian energy:                                     12.25777105792110
  Hartree energy:                                              20.75460650325115
  Exchange-correlation energy:                                 -3.71032238938372

  GAPW| Exc from hard and soft atomic rho1:                    -0.29377421289025
  GAPW| local Eh = 1 center integrals:                         -1.76005898355468

  Total energy:                                               -17.09893302139398

  outer SCF iter =    1 RMS gradient =   0.38E-04 energy =        -17.0989330214
  outer SCF loop converged in   1 iterations or    8 steps

  
  Eigenvalues of the occupied subspace spin            1
 ---------------------------------------------
      -0.82356517     -0.41631162     -0.27136450     -0.23140081
 Fermi Energy [eV] :   -6.296736
  
  Lowest Eigenvalues of the unoccupied subspace spin            1
 -----------------------------------------------------
 OT| Eigensolver reached convergence in 43 iterations
      -0.10866894
  
 HOMO - LUMO gap [eV] :    3.339704

 ENERGY| Total FORCE_EVAL ( QS ) energy [a.u.]:              -17.098933035055602

 --------  Informations at step =     1 ------------
  Optimization Method        =                 BFGS
  Total Energy               =       -17.0989330351
  Real energy change         =        -0.0969000252
  Predicted change in energy =        -0.0638533629
  Scaling factor             =         0.5671058451
  Step size                  =         0.4724315332
  Trust radius               =         0.4724315332
  Decrease in energy         =                  YES
  Used time                  =               65.834

  Convergence check :
  Max. step size             =         0.4724315332
  Conv. limit for step size  =         0.0100000000
  Convergence in step size   =                   NO
  RMS step size              =         0.2142675841
  Conv. limit for RMS step   =         0.0030000000
  Convergence in RMS step    =                   NO
  Max. gradient              =         0.1146715670
  Conv. limit for gradients  =         0.0010000000
  Conv. for gradients        =                   NO
  RMS gradient               =         0.0551467887
  Conv. limit for RMS grad.  =         0.0003000000
  Conv. for gradients        =                   NO
 ---------------------------------------------------
 Estimated peak process memory after this step [MiB]                        1793

 --------------------------
 OPTIMIZATION STEP:      2
 --------------------------

  Step is scaled; Scaling factor =  0.00043

 Number of electrons:                                                          8
 Number of occupied orbitals:                                                  4
 Number of molecular orbitals:                                                 4

 Number of orbital functions:                                                 23
 Number of independent orbital functions:                                     23

 Extrapolation method: ASPC


 SCF WAVEFUNCTION OPTIMIZATION

  ----------------------------------- OT ---------------------------------------
  Minimizer      : DIIS                : direct inversion
                                         in the iterative subspace
                                         using   7 DIIS vectors
                                         safer DIIS on
  Preconditioner : FULL_SINGLE_INVERSE : inversion of 
                                         H + eS - 2*(Sc)(c^T*H*c+const)(Sc)^T
  Precond_solver : DEFAULT
  stepsize       :    0.08000000                  energy_gap     :    0.08000000
  eps_taylor     :   0.10000E-15                  max_taylor     :             4
  ----------------------------------- OT ---------------------------------------

  Step     Update method      Time    Convergence         Total energy    Change
  ------------------------------------------------------------------------------
     1 OT DIIS     0.80E-01    6.2     0.03849618       -17.1717108764 -1.72E+01
     2 OT DIIS     0.80E-01    6.9     0.02048580       -17.1796610996 -7.95E-03
     3 OT DIIS     0.80E-01    7.0     0.01024008       -17.1829814738 -3.32E-03
     4 OT DIIS     0.80E-01    6.8     0.00454040       -17.1840372252 -1.06E-03
     5 OT DIIS     0.80E-01    6.9     0.00148631       -17.1842827608 -2.46E-04
     6 OT DIIS     0.80E-01    7.1     0.00046786       -17.1843081864 -2.54E-05
     7 OT DIIS     0.80E-01    7.1     0.00016052       -17.1843108104 -2.62E-06
     8 OT DIIS     0.80E-01    7.1     0.00008277       -17.1843109930 -1.83E-07

  *** SCF run converged in     8 steps ***


  Electronic density on regular grids:         -7.6310267362        0.3689732638
  Core density on regular grids:                8.0000000000       -0.0000000000
  Hard and soft densities (Lebedev):          -50.7389141680      -50.3699412227
  Total Rho_soft + Rho1_hard - Rho1_soft       -7.9999996815
  Total charge density (r-space):               0.0000003185
  Total Rho_soft + Rho0_soft (g-space):         0.0000002925

  Overlap energy of the core charge distribution:               0.00000004961611
  Self energy of the core charge distribution:                -44.34715499673765
  Core Hamiltonian energy:                                     12.80941471494638
  Hartree energy:                                              20.12309102463260
  Exchange-correlation energy:                                 -3.82377603957263

  GAPW| Exc from hard and soft atomic rho1:                    -0.36595330604656
  GAPW| local Eh = 1 center integrals:                         -1.57993243979871

  Total energy:                                               -17.18431099296046

  outer SCF iter =    1 RMS gradient =   0.83E-04 energy =        -17.1843109930
  outer SCF loop converged in   1 iterations or    8 steps

  
  Eigenvalues of the occupied subspace spin            1
 ---------------------------------------------
      -0.89066819     -0.51190887     -0.26895804     -0.24836804
 Fermi Energy [eV] :   -6.758438
  
  Lowest Eigenvalues of the unoccupied subspace spin            1
 -----------------------------------------------------
 OT| Eigensolver reached convergence in 45 iterations
      -0.01533271
  
 HOMO - LUMO gap [eV] :    6.341214

 ENERGY| Total FORCE_EVAL ( QS ) energy [a.u.]:              -17.184311069780112

 --------  Informations at step =     2 ------------
  Optimization Method        =                 BFGS
  Total Energy               =       -17.1843110698
  Real energy change         =        -0.0853780347
  Predicted change in energy =        -0.1252292208
  Scaling factor             =         0.0004331623
  Step size                  =         0.4724315332
  Trust radius               =         0.4724315332
  Decrease in energy         =                  YES
  Used time                  =               65.404

  Convergence check :
  Max. step size             =         0.4724315332
  Conv. limit for step size  =         0.0100000000
  Convergence in step size   =                   NO
  RMS step size              =         0.2317411333
  Conv. limit for RMS step   =         0.0030000000
  Convergence in RMS step    =                   NO
  Max. gradient              =         0.0899452529
  Conv. limit for gradients  =         0.0010000000
  Conv. for gradients        =                   NO
  RMS gradient               =         0.0461343308
  Conv. limit for RMS grad.  =         0.0003000000
  Conv. for gradients        =                   NO
 ---------------------------------------------------
 Estimated peak process memory after this step [MiB]                        1793

 --------------------------
 OPTIMIZATION STEP:      3
 --------------------------

  Step is scaled; Scaling factor =  0.42371

 Number of electrons:                                                          8
 Number of occupied orbitals:                                                  4
 Number of molecular orbitals:                                                 4

 Number of orbital functions:                                                 23
 Number of independent orbital functions:                                     23

 Extrapolation method: ASPC


 SCF WAVEFUNCTION OPTIMIZATION

  ----------------------------------- OT ---------------------------------------
  Minimizer      : DIIS                : direct inversion
                                         in the iterative subspace
                                         using   7 DIIS vectors
                                         safer DIIS on
  Preconditioner : FULL_SINGLE_INVERSE : inversion of 
                                         H + eS - 2*(Sc)(c^T*H*c+const)(Sc)^T
  Precond_solver : DEFAULT
  stepsize       :    0.08000000                  energy_gap     :    0.08000000
  eps_taylor     :   0.10000E-15                  max_taylor     :             4
  ----------------------------------- OT ---------------------------------------

  Step     Update method      Time    Convergence         Total energy    Change
  ------------------------------------------------------------------------------
     1 OT DIIS     0.80E-01    6.5     0.10697514       -17.1009185216 -1.71E+01
     2 OT DIIS     0.80E-01    7.1     0.06642323       -17.1683290632 -6.74E-02
     3 OT DIIS     0.80E-01    7.1     0.01988096       -17.2103731494 -4.20E-02
     4 OT DIIS     0.80E-01    7.1     0.00725070       -17.2141540237 -3.78E-03
     5 OT DIIS     0.80E-01    7.0     0.00157150       -17.2146373376 -4.83E-04
     6 OT DIIS     0.80E-01    6.8     0.00097839       -17.2146521217 -1.48E-05
     7 OT DIIS     0.80E-01    7.0     0.00025161       -17.2146571173 -5.00E-06
     8 OT DIIS     0.80E-01    7.0     0.00005378       -17.2146576511 -5.34E-07

  *** SCF run converged in     8 steps ***


  Electronic density on regular grids:         -7.6413208780        0.3586791220
  Core density on regular grids:                8.0000000000       -0.0000000000
  Hard and soft densities (Lebedev):          -53.1073435040      -52.7486644209
  Total Rho_soft + Rho1_hard - Rho1_soft       -7.9999999610
  Total charge density (r-space):               0.0000000390
  Total Rho_soft + Rho0_soft (g-space):         0.0000000131

  Overlap energy of the core charge distribution:               0.00000029267863
  Self energy of the core charge distribution:                -44.34715499673765
  Core Hamiltonian energy:                                     12.99892348764983
  Hartree energy:                                              20.00407804621385
  Exchange-correlation energy:                                 -3.90428268624171

  GAPW| Exc from hard and soft atomic rho1:                    -0.35637240360148
  GAPW| local Eh = 1 center integrals:                         -1.60984939110513

  Total energy:                                               -17.21465765114365

  outer SCF iter =    1 RMS gradient =   0.54E-04 energy =        -17.2146576511
  outer SCF loop converged in   1 iterations or    8 steps

  
  Eigenvalues of the occupied subspace spin            1
 ---------------------------------------------
      -0.94319788     -0.49201699     -0.33923164     -0.26442963
 Fermi Energy [eV] :   -7.195496
  
  Lowest Eigenvalues of the unoccupied subspace spin            1
 -----------------------------------------------------
 OT| Eigensolver reached convergence in 49 iterations
       0.02703031
  
 HOMO - LUMO gap [eV] :    7.931028

 ENERGY| Total FORCE_EVAL ( QS ) energy [a.u.]:              -17.214657677316659

 --------  Informations at step =     3 ------------
  Optimization Method        =                 BFGS
  Total Energy               =       -17.2146576773
  Real energy change         =        -0.0303466075
  Predicted change in energy =        -0.0578636973
  Scaling factor             =         0.4237055231
  Step size                  =         0.4724315332
  Trust radius               =         0.4724315332
  Decrease in energy         =                  YES
  Used time                  =               65.788

  Convergence check :
  Max. step size             =         0.4724315332
  Conv. limit for step size  =         0.0100000000
  Convergence in step size   =                   NO
  RMS step size              =         0.2418144234
  Conv. limit for RMS step   =         0.0030000000
  Convergence in RMS step    =                   NO
  Max. gradient              =         0.0745933532
  Conv. limit for gradients  =         0.0010000000
  Conv. for gradients        =                   NO
  RMS gradient               =         0.0430557604
  Conv. limit for RMS grad.  =         0.0003000000
  Conv. for gradients        =                   NO
 ---------------------------------------------------
 Estimated peak process memory after this step [MiB]                        1793

 --------------------------
 OPTIMIZATION STEP:      4
 --------------------------

  Step is scaled; Scaling factor =  0.65060

 Number of electrons:                                                          8
 Number of occupied orbitals:                                                  4
 Number of molecular orbitals:                                                 4

 Number of orbital functions:                                                 23
 Number of independent orbital functions:                                     23

 Extrapolation method: ASPC


 SCF WAVEFUNCTION OPTIMIZATION

  ----------------------------------- OT ---------------------------------------
  Minimizer      : DIIS                : direct inversion
                                         in the iterative subspace
                                         using   7 DIIS vectors
                                         safer DIIS on
  Preconditioner : FULL_SINGLE_INVERSE : inversion of 
                                         H + eS - 2*(Sc)(c^T*H*c+const)(Sc)^T
  Precond_solver : DEFAULT
  stepsize       :    0.08000000                  energy_gap     :    0.08000000
  eps_taylor     :   0.10000E-15                  max_taylor     :             4
  ----------------------------------- OT ---------------------------------------

  Step     Update method      Time    Convergence         Total energy    Change
  ------------------------------------------------------------------------------
     1 OT DIIS     0.80E-01    6.6     0.10707181       -17.0750927411 -1.71E+01
     2 OT DIIS     0.80E-01    7.2     0.05252824       -17.1347896286 -5.97E-02
     3 OT DIIS     0.80E-01    7.0     0.02495901       -17.1557120924 -2.09E-02
     4 OT DIIS     0.80E-01    6.8     0.00845913       -17.1616549860 -5.94E-03
     5 OT DIIS     0.80E-01    7.1     0.00349600       -17.1622751924 -6.20E-04
     6 OT DIIS     0.80E-01    7.2     0.00055625       -17.1623900334 -1.15E-04
     7 OT DIIS     0.80E-01    7.2     0.00018224       -17.1623926218 -2.59E-06
     8 OT DIIS     0.80E-01    7.1     0.00006537       -17.1623928666 -2.45E-07

  *** SCF run converged in     8 steps ***


  Electronic density on regular grids:         -7.7073081550        0.2926918450
  Core density on regular grids:                8.0000000000       -0.0000000000
  Hard and soft densities (Lebedev):          -53.8391327895      -53.5464409671
  Total Rho_soft + Rho1_hard - Rho1_soft       -7.9999999774
  Total charge density (r-space):               0.0000000226
  Total Rho_soft + Rho0_soft (g-space):        -0.0000000045

  Overlap energy of the core charge distribution:               0.00000000005898
  Self energy of the core charge distribution:                -44.34715499673765
  Core Hamiltonian energy:                                     12.43047465976205
  Hartree energy:                                              20.60900318972257
  Exchange-correlation energy:                                 -3.79106113558641

  GAPW| Exc from hard and soft atomic rho1:                    -0.28954776147765
  GAPW| local Eh = 1 center integrals:                         -1.77410682230183

  Total energy:                                               -17.16239286655994

  outer SCF iter =    1 RMS gradient =   0.65E-04 energy =        -17.1623928666
  outer SCF loop converged in   1 iterations or    8 steps

  
  Eigenvalues of the occupied subspace spin            1
 ---------------------------------------------
      -0.88500821     -0.39551794     -0.36865952     -0.25647685
 Fermi Energy [eV] :   -6.979090
  
  Lowest Eigenvalues of the unoccupied subspace spin            1
 -----------------------------------------------------
 OT| Eigensolver reached convergence in 49 iterations
      -0.05590061
  
 HOMO - LUMO gap [eV] :    5.457957

 ENERGY| Total FORCE_EVAL ( QS ) energy [a.u.]:              -17.162392899670131

 --------  Informations at step =     4 ------------
  Optimization Method        =                 BFGS
  Total Energy               =       -17.1623928997
  Real energy change         =         0.0522647776
  Predicted change in energy =        -0.0279565407
  Scaling factor             =         0.6505953196
  Step size                  =         0.4724315332
  Trust radius               =         0.4724315332
  Decrease in energy         =                   NO
  Used time                  =               66.231

  Convergence check :
  Max. step size             =         0.4724315332
  Conv. limit for step size  =         0.0100000000
  Convergence in step size   =                   NO
  RMS step size              =         0.2088557057
  Conv. limit for RMS step   =         0.0030000000
  Convergence in RMS step    =                   NO
  Max. gradient              =         0.1661337240
  Conv. limit for gradients  =         0.0010000000
  Conv. for gradients        =                   NO
  RMS gradient               =         0.0685023084
  Conv. limit for RMS grad.  =         0.0003000000
  Conv. for gradients        =                   NO
 ---------------------------------------------------
 Estimated peak process memory after this step [MiB]                        1793

 --------------------------
 OPTIMIZATION STEP:      5
 --------------------------

 Number of electrons:                                                          8
 Number of occupied orbitals:                                                  4
 Number of molecular orbitals:                                                 4

 Number of orbital functions:                                                 23
 Number of independent orbital functions:                                     23

 Extrapolation method: ASPC


 SCF WAVEFUNCTION OPTIMIZATION

  ----------------------------------- OT ---------------------------------------
  Minimizer      : DIIS                : direct inversion
                                         in the iterative subspace
                                         using   7 DIIS vectors
                                         safer DIIS on
  Preconditioner : FULL_SINGLE_INVERSE : inversion of 
                                         H + eS - 2*(Sc)(c^T*H*c+const)(Sc)^T
  Precond_solver : DEFAULT
  stepsize       :    0.08000000                  energy_gap     :    0.08000000
  eps_taylor     :   0.10000E-15                  max_taylor     :             4
  ----------------------------------- OT ---------------------------------------

  Step     Update method      Time    Convergence         Total energy    Change
  ------------------------------------------------------------------------------
     1 OT DIIS     0.80E-01    6.4     0.18219226       -16.9595193327 -1.70E+01
     2 OT DIIS     0.80E-01    6.9     0.09238259       -17.1290573337 -1.70E-01
     3 OT DIIS     0.80E-01    6.9     0.05056697       -17.1901689648 -6.11E-02
     4 OT DIIS     0.80E-01    6.9     0.01213401       -17.2164753058 -2.63E-02
     5 OT DIIS     0.80E-01    6.9     0.00489093       -17.2178493772 -1.37E-03
     6 OT DIIS     0.80E-01    6.8     0.00168023       -17.2180808597 -2.31E-04
     7 OT DIIS     0.80E-01    7.0     0.00073177       -17.2181094995 -2.86E-05
     8 OT DIIS     0.80E-01    7.0     0.00027644       -17.2181148818 -5.38E-06
     9 OT DIIS     0.80E-01    7.0     0.00006247       -17.2181157204 -8.39E-07

  *** SCF run converged in     9 steps ***


  Electronic density on regular grids:         -7.6597711159        0.3402288841
  Core density on regular grids:                8.0000000000       -0.0000000000
  Hard and soft densities (Lebedev):          -56.1446510512      -55.8044225290
  Total Rho_soft + Rho1_hard - Rho1_soft       -7.9999996380
  Total charge density (r-space):               0.0000003620
  Total Rho_soft + Rho0_soft (g-space):         0.0000003359

  Overlap energy of the core charge distribution:               0.00000002467673
  Self energy of the core charge distribution:                -44.34715499673765
  Core Hamiltonian energy:                                     12.78950954121286
  Hartree energy:                                              20.19390224713990
  Exchange-correlation energy:                                 -3.86231967013779

  GAPW| Exc from hard and soft atomic rho1:                    -0.33712061340120
  GAPW| local Eh = 1 center integrals:                         -1.65493225317890

  Total energy:                                               -17.21811572042605

  outer SCF iter =    1 RMS gradient =   0.62E-04 energy =        -17.2181157204
  outer SCF loop converged in   1 iterations or    9 steps

  
  Eigenvalues of the occupied subspace spin            1
 ---------------------------------------------
      -0.91556335     -0.46834742     -0.33597982     -0.25872771
 Fermi Energy [eV] :   -7.040339
  
  Lowest Eigenvalues of the unoccupied subspace spin            1
 -----------------------------------------------------
 OT| Eigensolver reached convergence in 53 iterations
       0.00878461
  
 HOMO - LUMO gap [eV] :    7.279380

 ENERGY| Total FORCE_EVAL ( QS ) energy [a.u.]:              -17.218115749928863

 --------  Informations at step =     5 ------------
  Optimization Method        =                 BFGS
  Total Energy               =       -17.2181157499
  Real energy change         =        -0.0557228503
  Predicted change in energy =        -0.0482433575
  Scaling factor             =         0.6505953196
  Step size                  =         0.4165714166
  Trust radius               =         0.4724315332
  Decrease in energy         =                  YES
  Used time                  =               71.864

  Convergence check :
  Max. step size             =         0.4165714166
  Conv. limit for step size  =         0.0100000000
  Convergence in step size   =                   NO
  RMS step size              =         0.2000154650
  Conv. limit for RMS step   =         0.0030000000
  Convergence in RMS step    =                   NO
  Max. gradient              =         0.0379114893
  Conv. limit for gradients  =         0.0010000000
  Conv. for gradients        =                   NO
  RMS gradient               =         0.0209312015
  Conv. limit for RMS grad.  =         0.0003000000
  Conv. for gradients        =                   NO
 ---------------------------------------------------
 Estimated peak process memory after this step [MiB]                        1793

 --------------------------
 OPTIMIZATION STEP:      6
 --------------------------

 Number of electrons:                                                          8
 Number of occupied orbitals:                                                  4
 Number of molecular orbitals:                                                 4

 Number of orbital functions:                                                 23
 Number of independent orbital functions:                                     23

 Extrapolation method: ASPC


 SCF WAVEFUNCTION OPTIMIZATION

  ----------------------------------- OT ---------------------------------------
  Minimizer      : DIIS                : direct inversion
                                         in the iterative subspace
                                         using   7 DIIS vectors
                                         safer DIIS on
  Preconditioner : FULL_SINGLE_INVERSE : inversion of 
                                         H + eS - 2*(Sc)(c^T*H*c+const)(Sc)^T
  Precond_solver : DEFAULT
  stepsize       :    0.08000000                  energy_gap     :    0.08000000
  eps_taylor     :   0.10000E-15                  max_taylor     :             4
  ----------------------------------- OT ---------------------------------------

  Step     Update method      Time    Convergence         Total energy    Change
  ------------------------------------------------------------------------------
     1 OT DIIS     0.80E-01    6.4     0.16151605       -16.9815712841 -1.70E+01
     2 OT DIIS     0.80E-01    7.0     0.09562916       -17.1329076737 -1.51E-01
     3 OT DIIS     0.80E-01    6.9     0.02484194       -17.2134708816 -8.06E-02
     4 OT DIIS     0.80E-01    6.9     0.01014175       -17.2189936840 -5.52E-03
     5 OT DIIS     0.80E-01    7.1     0.00179638       -17.2200196255 -1.03E-03
     6 OT DIIS     0.80E-01    6.9     0.00080224       -17.2200436847 -2.41E-05
     7 OT DIIS     0.80E-01    6.8     0.00052301       -17.2200482563 -4.57E-06
     8 OT DIIS     0.80E-01    6.9     0.00016872       -17.2200496002 -1.34E-06
     9 OT DIIS     0.80E-01    6.9     0.00002587       -17.2200498492 -2.49E-07

  *** SCF run converged in     9 steps ***


  Electronic density on regular grids:         -7.6500558404        0.3499441596
  Core density on regular grids:                8.0000000000       -0.0000000000
  Hard and soft densities (Lebedev):          -54.9334800394      -54.5835362600
  Total Rho_soft + Rho1_hard - Rho1_soft       -7.9999996197
  Total charge density (r-space):               0.0000003803
  Total Rho_soft + Rho0_soft (g-space):         0.0000003535

  Overlap energy of the core charge distribution:               0.00000005509182
  Self energy of the core charge distribution:                -44.34715499673765
  Core Hamiltonian energy:                                     12.88316923798837
  Hartree energy:                                              20.10228778123480
  Exchange-correlation energy:                                 -3.88024369109478

  GAPW| Exc from hard and soft atomic rho1:                    -0.34711793678208
  GAPW| local Eh = 1 center integrals:                         -1.63099029886800

  Total energy:                                               -17.22004984916752

  outer SCF iter =    1 RMS gradient =   0.26E-04 energy =        -17.2200498492
  outer SCF loop converged in   1 iterations or    9 steps

  
  Eigenvalues of the occupied subspace spin            1
 ---------------------------------------------
      -0.92624497     -0.48319711     -0.33351570     -0.26089256
 Fermi Energy [eV] :   -7.099248
  
  Lowest Eigenvalues of the unoccupied subspace spin            1
 -----------------------------------------------------
 OT| Eigensolver reached convergence in 49 iterations
       0.01926031
  
 HOMO - LUMO gap [eV] :    7.623347

 ENERGY| Total FORCE_EVAL ( QS ) energy [a.u.]:              -17.220049854446177

 --------  Informations at step =     6 ------------
  Optimization Method        =                 BFGS
  Total Energy               =       -17.2200498544
  Real energy change         =        -0.0019341045
  Predicted change in energy =        -0.0031154307
  Scaling factor             =         0.6505953196
  Step size                  =         0.0949182391
  Trust radius               =         0.4724315332
  Decrease in energy         =                  YES
  Used time                  =               72.537

  Convergence check :
  Max. step size             =         0.0949182391
  Conv. limit for step size  =         0.0100000000
  Convergence in step size   =                   NO
  RMS step size              =         0.0421654471
  Conv. limit for RMS step   =         0.0030000000
  Convergence in RMS step    =                   NO
  Max. gradient              =         0.0217351837
  Conv. limit for gradients  =         0.0010000000
  Conv. for gradients        =                   NO
  RMS gradient               =         0.0108847068
  Conv. limit for RMS grad.  =         0.0003000000
  Conv. for gradients        =                   NO
 ---------------------------------------------------
 Estimated peak process memory after this step [MiB]                        1793

 --------------------------
 OPTIMIZATION STEP:      7
 --------------------------

 Number of electrons:                                                          8
 Number of occupied orbitals:                                                  4
 Number of molecular orbitals:                                                 4

 Number of orbital functions:                                                 23
 Number of independent orbital functions:                                     23

 Extrapolation method: ASPC


 SCF WAVEFUNCTION OPTIMIZATION

  ----------------------------------- OT ---------------------------------------
  Minimizer      : DIIS                : direct inversion
                                         in the iterative subspace
                                         using   7 DIIS vectors
                                         safer DIIS on
  Preconditioner : FULL_SINGLE_INVERSE : inversion of 
                                         H + eS - 2*(Sc)(c^T*H*c+const)(Sc)^T
  Precond_solver : DEFAULT
  stepsize       :    0.08000000                  energy_gap     :    0.08000000
  eps_taylor     :   0.10000E-15                  max_taylor     :             4
  ----------------------------------- OT ---------------------------------------

  Step     Update method      Time    Convergence         Total energy    Change
  ------------------------------------------------------------------------------
     1 OT DIIS     0.80E-01    6.3     0.09752742       -17.1320757062 -1.71E+01
     2 OT DIIS     0.80E-01    7.1     0.05630263       -17.1842380230 -5.22E-02
     3 OT DIIS     0.80E-01    7.0     0.02983210       -17.2100951565 -2.59E-02
     4 OT DIIS     0.80E-01    7.1     0.00570030       -17.2201994940 -1.01E-02
     5 OT DIIS     0.80E-01    7.0     0.00203809       -17.2204865861 -2.87E-04
     6 OT DIIS     0.80E-01    7.0     0.00067277       -17.2205234672 -3.69E-05
     7 OT DIIS     0.80E-01    7.0     0.00025870       -17.2205283721 -4.90E-06
     8 OT DIIS     0.80E-01    7.0     0.00009294       -17.2205290213 -6.49E-07

  *** SCF run converged in     8 steps ***


  Electronic density on regular grids:         -7.6526671102        0.3473328898
  Core density on regular grids:                8.0000000000       -0.0000000000
  Hard and soft densities (Lebedev):          -55.5641987508      -55.2168662562
  Total Rho_soft + Rho1_hard - Rho1_soft       -7.9999996048
  Total charge density (r-space):               0.0000003952
  Total Rho_soft + Rho0_soft (g-space):         0.0000003697

  Overlap energy of the core charge distribution:               0.00000004332298
  Self energy of the core charge distribution:                -44.34715499673765
  Core Hamiltonian energy:                                     12.86952681311854
  Hartree energy:                                              20.11835768248136
  Exchange-correlation energy:                                 -3.87929933741782

  GAPW| Exc from hard and soft atomic rho1:                    -0.34445909210466
  GAPW| local Eh = 1 center integrals:                         -1.63750013393670

  Total energy:                                               -17.22052902127394

  outer SCF iter =    1 RMS gradient =   0.93E-04 energy =        -17.2205290213
  outer SCF loop converged in   1 iterations or    8 steps

  
  Eigenvalues of the occupied subspace spin            1
 ---------------------------------------------
      -0.92630741     -0.47747289     -0.33793755     -0.26104830
 Fermi Energy [eV] :   -7.103485
  
  Lowest Eigenvalues of the unoccupied subspace spin            1
 -----------------------------------------------------
 OT| Eigensolver reached convergence in 53 iterations
       0.01812684
  
 HOMO - LUMO gap [eV] :    7.596742

 ENERGY| Total FORCE_EVAL ( QS ) energy [a.u.]:              -17.220529098846391

 --------  Informations at step =     7 ------------
  Optimization Method        =                 BFGS
  Total Energy               =       -17.2205290988
  Real energy change         =        -0.0004792444
  Predicted change in energy =        -0.0006235715
  Scaling factor             =         0.6505953196
  Step size                  =         0.0379496328
  Trust radius               =         0.4724315332
  Decrease in energy         =                  YES
  Used time                  =               65.913

  Convergence check :
  Max. step size             =         0.0379496328
  Conv. limit for step size  =         0.0100000000
  Convergence in step size   =                   NO
  RMS step size              =         0.0189751218
  Conv. limit for RMS step   =         0.0030000000
  Convergence in RMS step    =                   NO
  Max. gradient              =         0.0071612735
  Conv. limit for gradients  =         0.0010000000
  Conv. for gradients        =                   NO
  RMS gradient               =         0.0035102216
  Conv. limit for RMS grad.  =         0.0003000000
  Conv. for gradients        =                   NO
 ---------------------------------------------------
 Estimated peak process memory after this step [MiB]                        1793

 --------------------------
 OPTIMIZATION STEP:      8
 --------------------------

 Number of electrons:                                                          8
 Number of occupied orbitals:                                                  4
 Number of molecular orbitals:                                                 4

 Number of orbital functions:                                                 23
 Number of independent orbital functions:                                     23

 Extrapolation method: ASPC


 SCF WAVEFUNCTION OPTIMIZATION

  ----------------------------------- OT ---------------------------------------
  Minimizer      : DIIS                : direct inversion
                                         in the iterative subspace
                                         using   7 DIIS vectors
                                         safer DIIS on
  Preconditioner : FULL_SINGLE_INVERSE : inversion of 
                                         H + eS - 2*(Sc)(c^T*H*c+const)(Sc)^T
  Precond_solver : DEFAULT
  stepsize       :    0.08000000                  energy_gap     :    0.08000000
  eps_taylor     :   0.10000E-15                  max_taylor     :             4
  ----------------------------------- OT ---------------------------------------

  Step     Update method      Time    Convergence         Total energy    Change
  ------------------------------------------------------------------------------
     1 OT DIIS     0.80E-01    6.3     0.02720087       -17.2135411643 -1.72E+01
     2 OT DIIS     0.80E-01    6.9     0.01618697       -17.2178162137 -4.28E-03
     3 OT DIIS     0.80E-01    7.0     0.00515604       -17.2202486106 -2.43E-03
     4 OT DIIS     0.80E-01    7.1     0.00212186       -17.2205061414 -2.58E-04
     5 OT DIIS     0.80E-01    7.0     0.00039201       -17.2205512492 -4.51E-05
     6 OT DIIS     0.80E-01    7.1     0.00012600       -17.2205526373 -1.39E-06
     7 OT DIIS     0.80E-01    7.0     0.00005391       -17.2205527814 -1.44E-07

  *** SCF run converged in     7 steps ***


  Electronic density on regular grids:         -7.6542908057        0.3457091943
  Core density on regular grids:                8.0000000000       -0.0000000000
  Hard and soft densities (Lebedev):          -55.8455422811      -55.4998334878
  Total Rho_soft + Rho1_hard - Rho1_soft       -7.9999995990
  Total charge density (r-space):               0.0000004010
  Total Rho_soft + Rho0_soft (g-space):         0.0000003752

  Overlap energy of the core charge distribution:               0.00000003418478
  Self energy of the core charge distribution:                -44.34715499673765
  Core Hamiltonian energy:                                     12.85107860886083
  Hartree energy:                                              20.13528663137300
  Exchange-correlation energy:                                 -3.87552146012808

  GAPW| Exc from hard and soft atomic rho1:                    -0.34277008481662
  GAPW| local Eh = 1 center integrals:                         -1.64147151418103

  Total energy:                                               -17.22055278144477

  outer SCF iter =    1 RMS gradient =   0.54E-04 energy =        -17.2205527814
  outer SCF loop converged in   1 iterations or    7 steps

  
  Eigenvalues of the occupied subspace spin            1
 ---------------------------------------------
      -0.92368990     -0.47544901     -0.33744266     -0.26047692
 Fermi Energy [eV] :   -7.087937
  
  Lowest Eigenvalues of the unoccupied subspace spin            1
 -----------------------------------------------------
 OT| Eigensolver reached convergence in 49 iterations
       0.01649419
  
 HOMO - LUMO gap [eV] :    7.536767

 ENERGY| Total FORCE_EVAL ( QS ) energy [a.u.]:              -17.220552794659525

 --------  Informations at step =     8 ------------
  Optimization Method        =                 BFGS
  Total Energy               =       -17.2205527947
  Real energy change         =        -0.0000236958
  Predicted change in energy =        -0.0000710776
  Scaling factor             =         0.6505953196
  Step size                  =         0.0115253215
  Trust radius               =         0.4724315332
  Decrease in energy         =                  YES
  Used time                  =               58.630

  Convergence check :
  Max. step size             =         0.0115253215
  Conv. limit for step size  =         0.0100000000
  Convergence in step size   =                   NO
  RMS step size              =         0.0063419000
  Conv. limit for RMS step   =         0.0030000000
  Convergence in RMS step    =                   NO
  Max. gradient              =         0.0039004211
  Conv. limit for gradients  =         0.0010000000
  Conv. for gradients        =                   NO
  RMS gradient               =         0.0021580243
  Conv. limit for RMS grad.  =         0.0003000000
  Conv. for gradients        =                   NO
 ---------------------------------------------------
 Estimated peak process memory after this step [MiB]                        1793

 --------------------------
 OPTIMIZATION STEP:      9
 --------------------------

 Number of electrons:                                                          8
 Number of occupied orbitals:                                                  4
 Number of molecular orbitals:                                                 4

 Number of orbital functions:                                                 23
 Number of independent orbital functions:                                     23

 Extrapolation method: ASPC


 SCF WAVEFUNCTION OPTIMIZATION

  ----------------------------------- OT ---------------------------------------
  Minimizer      : DIIS                : direct inversion
                                         in the iterative subspace
                                         using   7 DIIS vectors
                                         safer DIIS on
  Preconditioner : FULL_SINGLE_INVERSE : inversion of 
                                         H + eS - 2*(Sc)(c^T*H*c+const)(Sc)^T
  Precond_solver : DEFAULT
  stepsize       :    0.08000000                  energy_gap     :    0.08000000
  eps_taylor     :   0.10000E-15                  max_taylor     :             4
  ----------------------------------- OT ---------------------------------------

  Step     Update method      Time    Convergence         Total energy    Change
  ------------------------------------------------------------------------------
     1 OT DIIS     0.80E-01    6.4     0.01328414       -17.2189543595 -1.72E+01
     2 OT DIIS     0.80E-01    7.0     0.00775124       -17.2199744063 -1.02E-03
     3 OT DIIS     0.80E-01    7.1     0.00206532       -17.2205312193 -5.57E-04
     4 OT DIIS     0.80E-01    7.0     0.00075956       -17.2205717924 -4.06E-05
     5 OT DIIS     0.80E-01    7.0     0.00019975       -17.2205775697 -5.78E-06
     6 OT DIIS     0.80E-01    7.0     0.00006265       -17.2205779460 -3.76E-07

  *** SCF run converged in     6 steps ***


  Electronic density on regular grids:         -7.6532637032        0.3467362968
  Core density on regular grids:                8.0000000000       -0.0000000000
  Hard and soft densities (Lebedev):          -55.6722452647      -55.3255093665
  Total Rho_soft + Rho1_hard - Rho1_soft       -7.9999996013
  Total charge density (r-space):               0.0000003987
  Total Rho_soft + Rho0_soft (g-space):         0.0000003727

  Overlap energy of the core charge distribution:               0.00000003950339
  Self energy of the core charge distribution:                -44.34715499673765
  Core Hamiltonian energy:                                     12.86255009284129
  Hartree energy:                                              20.12477810184365
  Exchange-correlation energy:                                 -3.87792006106910

  GAPW| Exc from hard and soft atomic rho1:                    -0.34383467071295
  GAPW| local Eh = 1 center integrals:                         -1.63899645168737

  Total energy:                                               -17.22057794601873

  outer SCF iter =    1 RMS gradient =   0.63E-04 energy =        -17.2205779460
  outer SCF loop converged in   1 iterations or    6 steps

  
  Eigenvalues of the occupied subspace spin            1
 ---------------------------------------------
      -0.92538671     -0.47680904     -0.33777766     -0.26088297
 Fermi Energy [eV] :   -7.098987
  
  Lowest Eigenvalues of the unoccupied subspace spin            1
 -----------------------------------------------------
 OT| Eigensolver reached convergence in 51 iterations
       0.01757226
  
 HOMO - LUMO gap [eV] :    7.577152

 ENERGY| Total FORCE_EVAL ( QS ) energy [a.u.]:              -17.220577986203232

 --------  Informations at step =     9 ------------
  Optimization Method        =                 BFGS
  Total Energy               =       -17.2205779862
  Real energy change         =        -0.0000251915
  Predicted change in energy =        -0.0000266225
  Scaling factor             =         0.6505953196
  Step size                  =         0.0061670569
  Trust radius               =         0.4724315332
  Decrease in energy         =                  YES
  Used time                  =               51.813

  Convergence check :
  Max. step size             =         0.0061670569
  Conv. limit for step size  =         0.0100000000
  Convergence in step size   =                  YES
  RMS step size              =         0.0030724502
  Conv. limit for RMS step   =         0.0030000000
  Convergence in RMS step    =                   NO
  Max. gradient              =         0.0005367653
  Conv. limit for gradients  =         0.0010000000
  Conv. in gradients         =                  YES
  RMS gradient               =         0.0002795630
  Conv. limit for RMS grad.  =         0.0003000000
  Conv. in RMS gradients     =                  YES
 ---------------------------------------------------
 Estimated peak process memory after this step [MiB]                        1793

 --------------------------
 OPTIMIZATION STEP:     10
 --------------------------

 Number of electrons:                                                          8
 Number of occupied orbitals:                                                  4
 Number of molecular orbitals:                                                 4

 Number of orbital functions:                                                 23
 Number of independent orbital functions:                                     23

 Extrapolation method: ASPC


 SCF WAVEFUNCTION OPTIMIZATION

  ----------------------------------- OT ---------------------------------------
  Minimizer      : DIIS                : direct inversion
                                         in the iterative subspace
                                         using   7 DIIS vectors
                                         safer DIIS on
  Preconditioner : FULL_SINGLE_INVERSE : inversion of 
                                         H + eS - 2*(Sc)(c^T*H*c+const)(Sc)^T
  Precond_solver : DEFAULT
  stepsize       :    0.08000000                  energy_gap     :    0.08000000
  eps_taylor     :   0.10000E-15                  max_taylor     :             4
  ----------------------------------- OT ---------------------------------------

  Step     Update method      Time    Convergence         Total energy    Change
  ------------------------------------------------------------------------------
     1 OT DIIS     0.80E-01    6.7     0.00553957       -17.2203150511 -1.72E+01
     2 OT DIIS     0.80E-01    7.2     0.00307155       -17.2204857462 -1.71E-04
     3 OT DIIS     0.80E-01    7.3     0.00111465       -17.2205644416 -7.87E-05
     4 OT DIIS     0.80E-01    7.4     0.00043854       -17.2205762308 -1.18E-05
     5 OT DIIS     0.80E-01    6.9     0.00007629       -17.2205782438 -2.01E-06

  *** SCF run converged in     5 steps ***


  Electronic density on regular grids:         -7.6533347251        0.3466652749
  Core density on regular grids:                8.0000000000       -0.0000000000
  Hard and soft densities (Lebedev):          -55.6874581279      -55.3407932518
  Total Rho_soft + Rho1_hard - Rho1_soft       -7.9999996012
  Total charge density (r-space):               0.0000003988
  Total Rho_soft + Rho0_soft (g-space):         0.0000003730

  Overlap energy of the core charge distribution:               0.00000003915343
  Self energy of the core charge distribution:                -44.34715499673765
  Core Hamiltonian energy:                                     12.86174048913399
  Hartree energy:                                              20.12553707305979
  Exchange-correlation energy:                                 -3.87776758917191

  GAPW| Exc from hard and soft atomic rho1:                    -0.34375950316557
  GAPW| local Eh = 1 center integrals:                         -1.63917375607603

  Total energy:                                               -17.22057824380394

  outer SCF iter =    1 RMS gradient =   0.76E-04 energy =        -17.2205782438
  outer SCF loop converged in   1 iterations or    5 steps

  
  Eigenvalues of the occupied subspace spin            1
 ---------------------------------------------
      -0.92531062     -0.47668008     -0.33781206     -0.26086724
 Fermi Energy [eV] :   -7.098559
  
  Lowest Eigenvalues of the unoccupied subspace spin            1
 -----------------------------------------------------
 OT| Eigensolver reached convergence in 51 iterations
       0.01749755
  
 HOMO - LUMO gap [eV] :    7.574691

 ENERGY| Total FORCE_EVAL ( QS ) energy [a.u.]:              -17.220578301303050

 --------  Informations at step =    10 ------------
  Optimization Method        =                 BFGS
  Total Energy               =       -17.2205783013
  Real energy change         =        -0.0000003151
  Predicted change in energy =        -0.0000003632
  Scaling factor             =         0.6505953196
  Step size                  =         0.0008784265
  Trust radius               =         0.4724315332
  Decrease in energy         =                  YES
  Used time                  =               45.654

  Convergence check :
  Max. step size             =         0.0008784265
  Conv. limit for step size  =         0.0100000000
  Convergence in step size   =                  YES
  RMS step size              =         0.0003807364
  Conv. limit for RMS step   =         0.0030000000
  Convergence in RMS step    =                  YES
  Max. gradient              =         0.0000804101
  Conv. limit for gradients  =         0.0010000000
  Conv. in gradients         =                  YES
  RMS gradient               =         0.0000357199
  Conv. limit for RMS grad.  =         0.0003000000
  Conv. in RMS gradients     =                  YES
 ---------------------------------------------------
 Estimated peak process memory after this step [MiB]                        1793

 *******************************************************************************
 ***                    GEOMETRY OPTIMIZATION COMPLETED                      ***
 *******************************************************************************

                    Reevaluating energy at the minimum

 Number of electrons:                                                          8
 Number of occupied orbitals:                                                  4
 Number of molecular orbitals:                                                 4

 Number of orbital functions:                                                 23
 Number of independent orbital functions:                                     23

 Extrapolation method: ASPC


 SCF WAVEFUNCTION OPTIMIZATION

  ----------------------------------- OT ---------------------------------------
  Minimizer      : DIIS                : direct inversion
                                         in the iterative subspace
                                         using   7 DIIS vectors
                                         safer DIIS on
  Preconditioner : FULL_SINGLE_INVERSE : inversion of 
                                         H + eS - 2*(Sc)(c^T*H*c+const)(Sc)^T
  Precond_solver : DEFAULT
  stepsize       :    0.08000000                  energy_gap     :    0.08000000
  eps_taylor     :   0.10000E-15                  max_taylor     :             4
  ----------------------------------- OT ---------------------------------------

  Step     Update method      Time    Convergence         Total energy    Change
  ------------------------------------------------------------------------------
     1 OT DIIS     0.80E-01    6.2     0.00244418       -17.2205330293 -1.72E+01
     2 OT DIIS     0.80E-01    6.9     0.00122482       -17.2205638465 -3.08E-05
     3 OT DIIS     0.80E-01    6.8     0.00058892       -17.2205746222 -1.08E-05
     4 OT DIIS     0.80E-01    6.9     0.00017231       -17.2205779686 -3.35E-06
     5 OT DIIS     0.80E-01    6.8     0.00003175       -17.2205782946 -3.26E-07

  *** SCF run converged in     5 steps ***


  Electronic density on regular grids:         -7.6533516759        0.3466483241
  Core density on regular grids:                8.0000000000       -0.0000000000
  Hard and soft densities (Lebedev):          -55.6878841375      -55.3412362123
  Total Rho_soft + Rho1_hard - Rho1_soft       -7.9999996011
  Total charge density (r-space):               0.0000003989
  Total Rho_soft + Rho0_soft (g-space):         0.0000003730

  Overlap energy of the core charge distribution:               0.00000003915343
  Self energy of the core charge distribution:                -44.34715499673765
  Core Hamiltonian energy:                                     12.86194187941557
  Hartree energy:                                              20.12540928759152
  Exchange-correlation energy:                                 -3.87782165069850

  GAPW| Exc from hard and soft atomic rho1:                    -0.34374538183613
  GAPW| local Eh = 1 center integrals:                         -1.63920747151599

  Total energy:                                               -17.22057829462777

  outer SCF iter =    1 RMS gradient =   0.32E-04 energy =        -17.2205782946
  outer SCF loop converged in   1 iterations or    5 steps

  
  Eigenvalues of the occupied subspace spin            1
 ---------------------------------------------
      -0.92529288     -0.47666249     -0.33780559     -0.26085428
 Fermi Energy [eV] :   -7.098206
  
  Lowest Eigenvalues of the unoccupied subspace spin            1
 -----------------------------------------------------
 OT| Eigensolver reached convergence in 49 iterations
       0.01750945
  
 HOMO - LUMO gap [eV] :    7.574662

 ENERGY| Total FORCE_EVAL ( QS ) energy [a.u.]:              -17.220578294627767

 -------------------------------------------------------------------------------
 -                                                                             -
 -                                DBCSR STATISTICS                             -
 -                                                                             -
 -------------------------------------------------------------------------------
 COUNTER                                    TOTAL       BLAS       SMM       ACC
 flops     4 x     1 x     4                  736     100.0%      0.0%      0.0%
 flops     5 x     4 x     4                 3840     100.0%      0.0%      0.0%
 flops     4 x     1 x    23                 4232     100.0%      0.0%      0.0%
 flops    23 x     1 x     4                 4232     100.0%      0.0%      0.0%
 flops    13 x     4 x     4                 4992     100.0%      0.0%      0.0%
 flops     1 x     1 x     1                 5308     100.0%      0.0%      0.0%
 flops     5 x     5 x    23                26450     100.0%      0.0%      0.0%
 flops     1 x     1 x    23                51428     100.0%      0.0%      0.0%
 flops     5 x     1 x    23                67620     100.0%      0.0%      0.0%
 flops    23 x     1 x     5                67620     100.0%      0.0%      0.0%
 flops    13 x     5 x     4                69680     100.0%      0.0%      0.0%
 flops     5 x    13 x     4                69680     100.0%      0.0%      0.0%
 flops    23 x     1 x     1                80040     100.0%      0.0%      0.0%
 flops     5 x     5 x     4                80400     100.0%      0.0%      0.0%
 flops     4 x     4 x     4               119552     100.0%      0.0%      0.0%
 flops    23 x     5 x    23               121670     100.0%      0.0%      0.0%
 flops    13 x    13 x     4               181168     100.0%      0.0%      0.0%
 flops     5 x     1 x     5               252100     100.0%      0.0%      0.0%
 flops     5 x     4 x     5               262400     100.0%      0.0%      0.0%
 flops     4 x     4 x    23               308384     100.0%      0.0%      0.0%
 flops    13 x     1 x     5               308620     100.0%      0.0%      0.0%
 flops     5 x     1 x    13               308620     100.0%      0.0%      0.0%
 flops    23 x     1 x    23               311052     100.0%      0.0%      0.0%
 flops    13 x     4 x     5               341120     100.0%      0.0%      0.0%
 flops     5 x     4 x    13               341120     100.0%      0.0%      0.0%
 flops    23 x     4 x     4               355488     100.0%      0.0%      0.0%
 flops    13 x     1 x    13               401206     100.0%      0.0%      0.0%
 flops    13 x     4 x    13               443456     100.0%      0.0%      0.0%
 flops    23 x     4 x    23               469752     100.0%      0.0%      0.0%
 flops inhomo. stacks                           0       0.0%      0.0%      0.0%
 flops total                         5.061966E+06     100.0%      0.0%      0.0%
 flops max/rank                      5.061966E+06     100.0%      0.0%      0.0%
 matmuls inhomo. stacks                         0       0.0%      0.0%      0.0%
 matmuls total                              23225     100.0%      0.0%      0.0%
 number of processed stacks                 15370     100.0%      0.0%      0.0%
 average stack size                                     1.5       0.0       0.0
 marketing flops                     5.239074E+06
 -------------------------------------------------------------------------------
 # multiplications                          10469
 max memory usage/rank               1.822589E+09
 # max total images/rank                        1
 # max 3D layers                                1
 # MPI messages exchanged                       0
 -------------------------------------------------------------------------------

 -------------------------------------------------------------------------------
 -                                                                             -
 -                                DBM STATISTICS                               -
 -                                                                             -
 -------------------------------------------------------------------------------
    M  x    N  x    K                                          COUNT     PERCENT
 -------------------------------------------------------------------------------

 -------------------------------------------------------------------------------
 -                                                                             -
 -                                GRID STATISTICS                              -
 -                                                                             -
 -------------------------------------------------------------------------------
 LP    KERNEL             BACKEND                              COUNT     PERCENT
 2     collocate ortho    REF                                  12081      27.67%
 2     integrate ortho    REF                                  10622      24.33%
 3     integrate ortho    REF                                   7123      16.31%
 3     collocate ortho    REF                                   6660      15.25%
 4     integrate ortho    REF                                   3135       7.18%
 4     collocate ortho    REF                                   2775       6.35%
 1     collocate ortho    REF                                    336       0.77%
 2     collocate general  REF                                    330       0.76%
 2     integrate general  REF                                    297       0.68%
 5     integrate ortho    REF                                    275       0.63%
 3     integrate general  REF                                     33       0.08%
 -------------------------------------------------------------------------------

 MEMORY| Estimated peak process memory [MiB]                                1793

 -------------------------------------------------------------------------------
 ----                             MULTIGRID INFO                            ----
 -------------------------------------------------------------------------------
 count for grid        1:           7122          cutoff [a.u.]          200.00
 count for grid        2:           3352          cutoff [a.u.]           66.67
 count for grid        3:           3056          cutoff [a.u.]           22.22
 count for grid        4:           2056          cutoff [a.u.]            7.41
 total gridlevel count  :          15586

 -------------------------------------------------------------------------------
 -                                                                             -
 -                           R E F E R E N C E S                               -
 -                                                                             -
 -------------------------------------------------------------------------------
 
 CP2K version 2023.1 (Development Version), the CP2K developers group (2023).
 CP2K is freely available from https://www.cp2k.org/ .

 Kuehne,Thomas D.; Iannuzzi,Marcella; Del Ben,Mauro;
 Rybkin,Vladimir V.; Seewald,Patrick; Stein,Frederick; Laino,Teodoro;
 Khaliullin,Rustam Z.; Schuett,Ole; Schiffmann,Florian; Golze,Dorothea;
 Wilhelm,Jan; Chulkov,Sergey; Bani-Hashemian,Mohammad Hossein;
 Weber,Valery; Borstnik,Urban; Taillefumier,Mathieu;
 Jakobovits,Alice Shoshana; Lazzaro,Alfio; Pabst,Hans; Mueller,Tiziano;
 Schade,Robert; Guidon,Manuel; Andermatt,Samuel; Holmberg,Nico;
 Schenter,Gregory K.; Hehn,Anna; Bussy,Augustin; Belleflamme,Fabian;
 Tabacchi,Gloria; Gloess,Andreas; Lass,Michael; Bethune,Iain;
 Mundy,Christopher J.; Plessl,Christian; Watkins,Matt;
 VandeVondele,Joost; Krack,Matthias; Hutter,Juerg. 
 The Journal of Chemical Physics, 152 (19), (2020). 
 CP2K: An electronic structure and molecular dynamics software package -
 Quickstep: Efficient and accurate electronic structure calculations.
 https://doi.org/10.1063/5.0007045

 Schuett, Ole; Messmer, Peter; Hutter, Juerg; VandeVondele, Joost. 
 Electronic Structure Calculations on Graphics Processing Units, John
 Wiley & Sons, Ltd, 173-190 (2016). 
 GPU-Accelerated Sparse Matrix-Matrix Multiplication for
 Linear Scaling Density Functional Theory.
 https://doi.org/10.1002/9781118670712.ch8

 Borstnik, U; VandeVondele, J; Weber, V; Hutter, J. 
 PARALLEL COMPUTING, 40 (5-6), 47-58 (2014). 
 Sparse matrix multiplication: The distributed block-compressed sparse
 row library.
 https://doi.org/10.1016/j.parco.2014.03.012

 Hutter, J; Iannuzzi, M; Schiffmann, F; VandeVondele, J. 
 WIREs Comput Mol Sci., 4 (1), 15-25 (2014). 
 CP2K: atomistic simulations of condensed matter systems.
 https://doi.org/10.1002/wcms.1159

 VandeVondele, J; Hutter, J. 
 JOURNAL OF CHEMICAL PHYSICS, 127 (11), 114105 (2007). 
 Gaussian basis sets for accurate calculations on molecular systems in
 gas and condensed phases.
 https://doi.org/10.1063/1.2770708

 Genovese, L; Deutsch, T; Goedecker, S. 
 JOURNAL OF CHEMICAL PHYSICS, 127 (5), 054704 (2007). 
 Efficient and accurate three-dimensional Poisson solver for surface
 problems.
 https://doi.org/10.1063/1.2754685

 Kuhne, TD; Krack, M; Mohamed, FR; Parrinello, M. 
 PHYSICAL REVIEW LETTERS, 98 (6), 066401 (2007). 
 Efficient and accurate Car-Parrinello-like approach to
 Born-Oppenheimer molecular dynamics.
 https://doi.org/10.1103/PhysRevLett.98.066401

 Genovese, L; Deutsch, T; Neelov, A; Goedecker, S; Beylkin, G. 
 JOURNAL OF CHEMICAL PHYSICS, 125 (7), 074105 (2006). 
 Efficient solution of Poisson's equation with free boundary conditions.
 https://doi.org/10.1063/1.2335442

 Krack, M. 
 THEORETICAL CHEMISTRY ACCOUNTS, 114 (1-3), 145-152 (2005). 
 Pseudopotentials for H to Kr optimized for gradient-corrected
 exchange-correlation functionals.
 https://doi.org/10.1007/s00214-005-0655-y

 Frigo, M; Johnson, SG. 
 PROCEEDINGS OF THE IEEE, 93 (2), 216-231 (2005). 
 The design and implementation of FFTW3.
 https://doi.org/10.1109/JPROC.2004.840301

 Kolafa, J. 
 JOURNAL OF COMPUTATIONAL CHEMISTRY, 25 (3), 335-342 (2004). 
 Time-reversible always stable predictor-corrector method for
 molecular dynamics of polarizable molecules.
 https://doi.org/10.1002/jcc.10385

 VandeVondele, J; Hutter, J. 
 JOURNAL OF CHEMICAL PHYSICS, 118 (10), 4365-4369 (2003). 
 An efficient orbital transformation method for electronic structure
 calculations.
 https://doi.org/10.1063/1.1543154

 Lippert, G; Hutter, J; Parrinello, M. 
 THEORETICAL CHEMISTRY ACCOUNTS, 103 (2), 124-140 (1999). 
 The Gaussian and augmented-plane-wave density functional method for ab
 initio molecular dynamics simulations.
 https://doi.org/10.1007/s002140050523

 Krack, M; Parrinello, M. 
 PHYSICAL CHEMISTRY CHEMICAL PHYSICS, 2 (10), 2105-2112 (2000). 
 All-electron ab-initio molecular dynamics.
 https://doi.org/10.1039/b001167n

 Hartwigsen, C; Goedecker, S; Hutter, J. 
 PHYSICAL REVIEW B, 58 (7), 3641-3662 (1998). 
 Relativistic separable dual-space Gaussian pseudopotentials from H to Rn.
 https://doi.org/10.1103/PhysRevB.58.3641

 Perdew, JP; Burke, K; Ernzerhof, M. 
 PHYSICAL REVIEW LETTERS, 77 (18), 3865-3868 (1996). 
 Generalized gradient approximation made simple.
 https://doi.org/10.1103/PhysRevLett.77.3865

 Goedecker, S; Teter, M; Hutter, J. 
 PHYSICAL REVIEW B, 54 (3), 1703-1710 (1996). 
 Separable dual-space Gaussian pseudopotentials.
 https://doi.org/10.1103/PhysRevB.54.1703


 -------------------------------------------------------------------------------
 -                                                                             -
 -                                T I M I N G                                  -
 -                                                                             -
 -------------------------------------------------------------------------------
 SUBROUTINE                       CALLS  ASD         SELF TIME        TOTAL TIME
                                MAXIMUM       AVERAGE  MAXIMUM  AVERAGE  MAXIMUM
 CP2K                                 1  1.0    0.131    0.131  814.248  814.248
 cp_geo_opt                           1  2.0    0.004    0.004  811.618  811.618
 geoopt_bfgs                          1  3.0    0.009    0.009  811.614  811.614
 cp_eval_at                          12  4.0    0.008    0.008  811.533  811.533
 qs_forces                           11  5.0    0.009    0.009  774.122  774.122
 qs_energies                         12  5.9    0.017    0.017  741.260  741.260
 rebuild_ks_matrix                  110  9.7    0.000    0.000  706.491  706.491
 qs_ks_build_kohn_sham_matrix       110 10.7    0.033    0.033  706.491  706.491
 scf_env_do_scf                      12  6.9    0.003    0.003  703.187  703.187
 qs_ks_update_qs_env                111  8.9    0.001    0.001  636.300  636.300
 scf_env_do_scf_inner_loop           99  7.9    0.013    0.013  623.395  623.395
 pw_transfer                       2435 13.7    0.105    0.105  448.734  448.734
 fft_wrap_pw1pw2                   2325 14.7    0.015    0.015  447.946  447.946
 fft_wrap_pw1pw2_200               1590 16.0   33.548   33.548  437.805  437.805
 qs_vxc_create                      110 11.7    0.005    0.005  405.534  405.534
 xc_vxc_pw_create                   110 12.7    4.956    4.956  405.529  405.529
 xc_rho_set_and_dset_create         110 13.7    4.037    4.037  260.433  260.433
 fft3d_s                           2326 16.7  223.202  223.202  223.226  223.226
 xc_pw_derive                       660 14.7    0.006    0.006  198.607  198.607
 pw_poisson_solve                   110 11.7   18.390   18.390  181.901  181.901
 xc_functional_eval                 770 13.8    0.003    0.003  163.063  163.063
 pbe_lda_eval                       770 14.8  163.060  163.060  163.060  163.060
 xc_pw_divergence                   110 13.7    0.003    0.003  138.423  138.423
 pw_gather_s                       1200 16.3  106.111  106.111  106.111  106.111
 pw_scatter_s                      1125 17.1   84.669   84.669   84.669   84.669
 ps_wavelet_solve                   110 12.7   81.480   81.480   83.605   83.605
 init_scf_loop                       12  7.9    0.004    0.004   79.788   79.788
 qs_rho_update_rho_low              111  9.0    0.003    0.003   74.298   74.298
 calculate_rho_elec                 111 10.0    2.947    2.947   74.273   74.273
 qs_ks_update_qs_env_forces          11  6.0    0.000    0.000   70.194   70.194
 density_rs2pw                      111 11.0    0.005    0.005   69.191   69.191
 sum_up_and_integrate               110 11.7    2.587    2.587   43.130   43.130
 integrate_v_rspace                 110 12.7    0.007    0.007   40.543   40.543
 prepare_gapw_den                   110 11.7    0.003    0.003   40.184   40.184
 put_rho0_on_grid                   110 12.7    2.949    2.949   39.611   39.611
 potential_pw2rs                    110 13.7    0.072    0.072   39.501   39.501
 scf_post_calculation_gpw            12  6.9    0.009    0.009   29.390   29.390
 -------------------------------------------------------------------------------

 The number of warnings for this run is : 1
 
 -------------------------------------------------------------------------------
  **** **** ******  **  PROGRAM ENDED AT                 2023-04-05 11:20:28.320
 ***** ** ***  *** **   PROGRAM RAN ON                                eu-a2p-488
 **    ****   ******    PROGRAM RAN BY                                 jbachmann
 ***** **    ** ** **   PROGRAM PROCESS ID                                 94444
  **** **  *******  **  PROGRAM STOPPED IN /cluster/home/jbachmann/Molecular-and
                                           -Materials-Modelling-FS2023/exercise7
                                           /PBE/DZVP
