 DBCSR| CPU Multiplication driver                                           BLAS (U)
 DBCSR| Multrec recursion limit                                              512 (U)
 DBCSR| Multiplication stack size                                           1000 (D)
 DBCSR| Maximum elements for images                                    UNLIMITED (U)
 DBCSR| Multiplicative factor virtual images                                   1 (U)
 DBCSR| Use multiplication densification                                       T (D)
 DBCSR| Multiplication size stacks                                             3 (U)
 DBCSR| Use memory pool for CPU allocation                                     F (U)
 DBCSR| OMP: Current number of threads                                         1
 DBCSR| OMP: Max number of threads                                             1
 DBCSR| Split modifier for TAS multiplication algorithm                  1.0E+00 (U)


  **** **** ******  **  PROGRAM STARTED AT               2023-04-05 11:06:57.443
 ***** ** ***  *** **   PROGRAM STARTED ON                            eu-a2p-294
 **    ****   ******    PROGRAM STARTED BY                             jbachmann
 ***** **    ** ** **   PROGRAM PROCESS ID                                 84852
  **** **  *******  **  PROGRAM STARTED IN /cluster/home/jbachmann/Molecular-and
                                           -Materials-Modelling-FS2023/exercise7
                                           /PBE/DZVP

 CP2K| version string:                 CP2K version 2023.1 (Development Version)
 CP2K| source code revision number:                                  git:dc34ec9
 CP2K| cp2kflags: omp libint fftw3 libxc max_contr=4 spglib libvori libbqb      
 CP2K| is freely available from                            https://www.cp2k.org/
 CP2K| Program compiled at                         Mon Mar 27 23:22:21 CEST 2023
 CP2K| Program compiled on                                           eu-g5-025-4
 CP2K| Program compiled for                              Linux-gnu-x86_64-static
 CP2K| Data directory path      /cluster/apps/nss/gcc-6.3.0/cp2k/8.2/x86_64/data
 CP2K| Input file name                                                    ts.inp

 GLOBAL| Force Environment number                                              1
 GLOBAL| Basis set file name                                        BASIS_MOLOPT
 GLOBAL| Potential file name                                      GTH_POTENTIALS
 GLOBAL| MM Potential file name                                     MM_POTENTIAL
 GLOBAL| Coordinate file name                                       ../../ts.xyz
 GLOBAL| Method name                                                        CP2K
 GLOBAL| Project name                                                         ts
 GLOBAL| Run type                                                         ENERGY
 GLOBAL| FFT library                                                       FFTW3
 GLOBAL| Diagonalization library                                       ScaLAPACK
 GLOBAL| DGEMM library                                                      BLAS
 GLOBAL| Orthonormality check for eigenvectors                          DISABLED
 GLOBAL| Matrix multiplication library                                 ScaLAPACK
 GLOBAL| All-to-all communication in single precision                          F
 GLOBAL| FFTs using library dependent lengths                                  F
 GLOBAL| Grid backend                                                       AUTO
 GLOBAL| Global print level                                                  LOW
 GLOBAL| MPI I/O enabled                                                       T
 GLOBAL| Total number of message passing processes                             1
 GLOBAL| Number of threads for this process                                    1
 GLOBAL| This output is from process                                           0
 GLOBAL| Stack size for threads created by OpenMP (OMP_STACKSIZE)        default
 GLOBAL| CPU model name                          AMD EPYC 7763 64-Core Processor

 MEMORY| system memory details [Kb]
 MEMORY|                        rank 0           min           max       average
 MEMORY| MemTotal            261505412     261505412     261505412     261505412
 MEMORY| MemFree             244106364     244106364     244106364     244106364
 MEMORY| Buffers                  1052          1052          1052          1052
 MEMORY| Cached                8047568       8047568       8047568       8047568
 MEMORY| Slab                  1513988       1513988       1513988       1513988
 MEMORY| SReclaimable           442800        442800        442800        442800
 MEMORY| MemLikelyFree       252597784     252597784     252597784     252597784


 GENERATE|  Preliminary Number of Bonds generated:                             0
 GENERATE|  Achieved consistency in connectivity generation.

 *******************************************************************************
 *******************************************************************************
 **                                                                           **
 **     #####                         ##              ##                      **
 **    ##   ##            ##          ##              ##                      **
 **   ##     ##                       ##            ######                    **
 **   ##     ##  ##   ##  ##   #####  ##  ##   ####   ##    #####    #####    **
 **   ##     ##  ##   ##  ##  ##      ## ##   ##      ##   ##   ##  ##   ##   **
 **   ##  ## ##  ##   ##  ##  ##      ####     ###    ##   ######   ######    **
 **    ##  ###   ##   ##  ##  ##      ## ##      ##   ##   ##       ##        **
 **     #######   #####   ##   #####  ##  ##  ####    ##    #####   ##        **
 **           ##                                                    ##        **
 **                                                                           **
 **                                                ... make the atoms dance   **
 **                                                                           **
 **            Copyright (C) by CP2K developers group (2000-2023)             **
 **                      J. Chem. Phys. 152, 194103 (2020)                    **
 **                                                                           **
 *******************************************************************************


 TOTAL NUMBERS AND MAXIMUM NUMBERS

  Total number of            - Atomic kinds:                                   3
                             - Atoms:                                          9
                             - Shell sets:                                     9
                             - Shells:                                        33
                             - Primitive Cartesian functions:                 63
                             - Cartesian basis functions:                     72
                             - Spherical basis functions:                     69

  Maximum angular momentum of- Orbital basis functions:                        2
                             - Local part of the GTH pseudopotential:          2
                             - Non-local part of the GTH pseudopotential:      0


 SCF PARAMETERS         Density guess:                                   RESTART
                        --------------------------------------------------------
                        max_scf:                                              50
                        max_scf_history:                                       0
                        max_diis:                                              4
                        --------------------------------------------------------
                        eps_scf:                                        1.00E-04
                        eps_scf_history:                                0.00E+00
                        eps_diis:                                       1.00E-01
                        eps_eigval:                                     1.00E-05
                        --------------------------------------------------------
                        level_shift [a.u.]:                             0.000000
                        --------------------------------------------------------
                        Outer loop SCF in use 
                        No variables optimised in outer loop
                        eps_scf                                         1.00E-04
                        max_scf                                              500
                        No outer loop optimization
                        step_size                                       5.00E-01

 PW_GRID| Information for grid number                                          1
 PW_GRID| Cutoff [a.u.]                                                    200.0
 PW_GRID| spherical cutoff:                                                   NO
 PW_GRID|   Bounds   1            -96      95                Points:         192
 PW_GRID|   Bounds   2            -96      95                Points:         192
 PW_GRID|   Bounds   3            -96      95                Points:         192
 PW_GRID| Volume element (a.u.^3)  0.3218E-02     Volume (a.u.^3)     22775.6292
 PW_GRID| Grid span                                                    FULLSPACE

 PW_GRID| Information for grid number                                          2
 PW_GRID| Number of the reference grid                                         1
 PW_GRID| Cutoff [a.u.]                                                     66.7
 PW_GRID| spherical cutoff:                                                   NO
 PW_GRID|   Bounds   1            -54      53                Points:         108
 PW_GRID|   Bounds   2            -54      53                Points:         108
 PW_GRID|   Bounds   3            -54      53                Points:         108
 PW_GRID| Volume element (a.u.^3)  0.1808E-01     Volume (a.u.^3)     22775.6292
 PW_GRID| Grid span                                                    FULLSPACE

 PW_GRID| Information for grid number                                          3
 PW_GRID| Number of the reference grid                                         1
 PW_GRID| Cutoff [a.u.]                                                     22.2
 PW_GRID| spherical cutoff:                                                   NO
 PW_GRID|   Bounds   1            -32      31                Points:          64
 PW_GRID|   Bounds   2            -32      31                Points:          64
 PW_GRID|   Bounds   3            -32      31                Points:          64
 PW_GRID| Volume element (a.u.^3)  0.8688E-01     Volume (a.u.^3)     22775.6292
 PW_GRID| Grid span                                                    FULLSPACE

 PW_GRID| Information for grid number                                          4
 PW_GRID| Number of the reference grid                                         1
 PW_GRID| Cutoff [a.u.]                                                      7.4
 PW_GRID| spherical cutoff:                                                   NO
 PW_GRID|   Bounds   1            -18      17                Points:          36
 PW_GRID|   Bounds   2            -18      17                Points:          36
 PW_GRID|   Bounds   3            -18      17                Points:          36
 PW_GRID| Volume element (a.u.^3)  0.4882         Volume (a.u.^3)     22775.6292
 PW_GRID| Grid span                                                    FULLSPACE

 POISSON| Solver                                                         WAVELET
 POISSON| Wavelet| Scaling function                                           40
 POISSON| Periodicity                                                       NONE

 RS_GRID| Information for grid number                                          1
 RS_GRID|   Bounds   1            -96      95                Points:         192
 RS_GRID|   Bounds   2            -96      95                Points:         192
 RS_GRID|   Bounds   3            -96      95                Points:         192

 RS_GRID| Information for grid number                                          2
 RS_GRID|   Bounds   1            -54      53                Points:         108
 RS_GRID|   Bounds   2            -54      53                Points:         108
 RS_GRID|   Bounds   3            -54      53                Points:         108

 RS_GRID| Information for grid number                                          3
 RS_GRID|   Bounds   1            -32      31                Points:          64
 RS_GRID|   Bounds   2            -32      31                Points:          64
 RS_GRID|   Bounds   3            -32      31                Points:          64

 RS_GRID| Information for grid number                                          4
 RS_GRID|   Bounds   1            -18      17                Points:          36
 RS_GRID|   Bounds   2            -18      17                Points:          36
 RS_GRID|   Bounds   3            -18      17                Points:          36

 Number of electrons:                                                         20
 Number of occupied orbitals:                                                 10
 Number of molecular orbitals:                                                10

 Number of orbital functions:                                                 69
 Number of independent orbital functions:                                     69

 Extrapolation method: initial_guess

 *** WARNING in qs_initial_guess.F:305 :: User requested to restart the   ***
 *** wavefunction from the file named: ts-RESTART.wfn. This file does not ***
 *** exist. Please check the existence of the file or change properly the ***
 *** value of the keyword WFN_RESTART_FILE_NAME. Calculation continues    ***
 *** using ATOMIC GUESS.                                                  ***



 SCF WAVEFUNCTION OPTIMIZATION

  ----------------------------------- OT ---------------------------------------
  Minimizer      : DIIS                : direct inversion
                                         in the iterative subspace
                                         using   7 DIIS vectors
                                         safer DIIS on
  Preconditioner : FULL_SINGLE_INVERSE : inversion of 
                                         H + eS - 2*(Sc)(c^T*H*c+const)(Sc)^T
  Precond_solver : DEFAULT
  stepsize       :    0.08000000                  energy_gap     :    0.08000000
  eps_taylor     :   0.10000E-15                  max_taylor     :             4
  ----------------------------------- OT ---------------------------------------

  Step     Update method      Time    Convergence         Total energy    Change
  ------------------------------------------------------------------------------
     1 OT DIIS     0.80E-01   10.1     0.16327461       -29.1632617122 -2.92E+01
     2 OT DIIS     0.80E-01    8.5     0.11903205       -30.2494220480 -1.09E+00
     3 OT DIIS     0.80E-01    8.3     0.08162385       -30.6299638396 -3.81E-01
     4 OT DIIS     0.80E-01    8.3     0.04691259       -30.7892168204 -1.59E-01
     5 OT DIIS     0.80E-01    8.2     0.02893483       -30.8263046667 -3.71E-02
     6 OT DIIS     0.80E-01    8.1     0.02719272       -30.8542954313 -2.80E-02
     7 OT DIIS     0.80E-01    8.0     0.00976406       -30.8653188469 -1.10E-02
     8 OT DIIS     0.80E-01    8.0     0.00471241       -30.8703801548 -5.06E-03
     9 OT DIIS     0.80E-01    7.9     0.00281098       -30.8721079498 -1.73E-03
    10 OT DIIS     0.80E-01    8.0     0.00174592       -30.8726840751 -5.76E-04
    11 OT DIIS     0.80E-01    8.1     0.00111990       -30.8728930481 -2.09E-04
    12 OT DIIS     0.80E-01    8.1     0.00066173       -30.8730143331 -1.21E-04
    13 OT DIIS     0.80E-01    8.0     0.00045442       -30.8730478516 -3.35E-05
    14 OT DIIS     0.80E-01    7.9     0.00027356       -30.8730632343 -1.54E-05
    15 OT DIIS     0.80E-01    8.1     0.00014647       -30.8730698555 -6.62E-06
    16 OT DIIS     0.80E-01    8.1     0.00010309       -30.8730717451 -1.89E-06
    17 OT DIIS     0.80E-01    8.2     0.00006482       -30.8730725797 -8.35E-07

  *** SCF run converged in    17 steps ***


  Electronic density on regular grids:        -19.5865766751        0.4134233249
  Core density on regular grids:               20.0000000000       -0.0000000000
  Hard and soft densities (Lebedev):         -317.1616552158     -316.7482320802
  Total Rho_soft + Rho1_hard - Rho1_soft      -19.9999998108
  Total charge density (r-space):               0.0000001892
  Total Rho_soft + Rho0_soft (g-space):         0.0000001231

  Overlap energy of the core charge distribution:               0.00000136846112
  Self energy of the core charge distribution:                -76.65906668574564
  Core Hamiltonian energy:                                     23.05754161183526
  Hartree energy:                                              45.61875527276186
  Exchange-correlation energy:                                 -8.68086942512079

  GAPW| Exc from hard and soft atomic rho1:                    -0.38521004854064
  GAPW| local Eh = 1 center integrals:                        -13.82422467331886

  Total energy:                                               -30.87307257966770

  outer SCF iter =    1 RMS gradient =   0.65E-04 energy =        -30.8730725797
  outer SCF loop converged in   1 iterations or   17 steps

  
  Eigenvalues of the occupied subspace spin            1
 ---------------------------------------------
      -0.88981407     -0.70011976     -0.54003393     -0.45580118
      -0.42503857     -0.37181685     -0.32565329     -0.30952298
      -0.29366379     -0.19062663
 Fermi Energy [eV] :   -5.187214
  
  Lowest Eigenvalues of the unoccupied subspace spin            1
 -----------------------------------------------------
 OT| Eigensolver reached convergence in 45 iterations
      -0.05241057
  
 HOMO - LUMO gap [eV] :    3.761050

 ENERGY| Total FORCE_EVAL ( QS ) energy [a.u.]:              -30.873072579667699

 -------------------------------------------------------------------------------
 -                                                                             -
 -                                DBCSR STATISTICS                             -
 -                                                                             -
 -------------------------------------------------------------------------------
 COUNTER                                    TOTAL       BLAS       SMM       ACC
 flops    10 x     1 x    10                  400     100.0%      0.0%      0.0%
 flops     1 x     1 x     1                  402     100.0%      0.0%      0.0%
 flops    10 x     1 x    69                 2760     100.0%      0.0%      0.0%
 flops    69 x     1 x    10                 2760     100.0%      0.0%      0.0%
 flops    11 x     1 x    11                 5566     100.0%      0.0%      0.0%
 flops     5 x    10 x    10                 6000     100.0%      0.0%      0.0%
 flops    13 x    10 x    10                 7800     100.0%      0.0%      0.0%
 flops     1 x     1 x    69                12006     100.0%      0.0%      0.0%
 flops    69 x     1 x     1                18768     100.0%      0.0%      0.0%
 flops    11 x    11 x    69                33396     100.0%      0.0%      0.0%
 flops    11 x     1 x    69                34914     100.0%      0.0%      0.0%
 flops    69 x     1 x    11                34914     100.0%      0.0%      0.0%
 flops     5 x     1 x     5               167400     100.0%      0.0%      0.0%
 flops     5 x     5 x    10               199500     100.0%      0.0%      0.0%
 flops    69 x    11 x    69               209484     100.0%      0.0%      0.0%
 flops    13 x     1 x     5               217620     100.0%      0.0%      0.0%
 flops     5 x     1 x    13               217620     100.0%      0.0%      0.0%
 flops    69 x     1 x    69               219006     100.0%      0.0%      0.0%
 flops    13 x     5 x    10               222300     100.0%      0.0%      0.0%
 flops     5 x    13 x    10               222300     100.0%      0.0%      0.0%
 flops    13 x     1 x    13               282906     100.0%      0.0%      0.0%
 flops    10 x    10 x    10               294000     100.0%      0.0%      0.0%
 flops    13 x    13 x    10               385320     100.0%      0.0%      0.0%
 flops     5 x    10 x     5               774000     100.0%      0.0%      0.0%
 flops    10 x    10 x    69               966000     100.0%      0.0%      0.0%
 flops    13 x    10 x     5              1006200     100.0%      0.0%      0.0%
 flops     5 x    10 x    13              1006200     100.0%      0.0%      0.0%
 flops    69 x    10 x    10              1159200     100.0%      0.0%      0.0%
 flops    13 x    10 x    13              1308060     100.0%      0.0%      0.0%
 flops    69 x    10 x    69              1713960     100.0%      0.0%      0.0%
 flops inhomo. stacks                           0       0.0%      0.0%      0.0%
 flops total                        10.730762E+06     100.0%      0.0%      0.0%
 flops max/rank                     10.730762E+06     100.0%      0.0%      0.0%
 matmuls inhomo. stacks                         0       0.0%      0.0%      0.0%
 matmuls total                              12725     100.0%      0.0%      0.0%
 number of processed stacks                  1467     100.0%      0.0%      0.0%
 average stack size                                     8.7       0.0       0.0
 marketing flops                    11.524874E+06
 -------------------------------------------------------------------------------
 # multiplications                           1006
 max memory usage/rank               1.823842E+09
 # max total images/rank                        1
 # max 3D layers                                1
 # MPI messages exchanged                       0
 -------------------------------------------------------------------------------

 -------------------------------------------------------------------------------
 -                                                                             -
 -                                DBM STATISTICS                               -
 -                                                                             -
 -------------------------------------------------------------------------------
    M  x    N  x    K                                          COUNT     PERCENT
 -------------------------------------------------------------------------------

 -------------------------------------------------------------------------------
 -                                                                             -
 -                                GRID STATISTICS                              -
 -                                                                             -
 -------------------------------------------------------------------------------
 LP    KERNEL             BACKEND                              COUNT     PERCENT
 2     collocate ortho    REF                                  13002      24.37%
 2     integrate ortho    REF                                  12240      22.94%
 3     collocate ortho    REF                                  10782      20.21%
 3     integrate ortho    REF                                  10183      19.09%
 4     collocate ortho    REF                                   3474       6.51%
 4     integrate ortho    REF                                   3281       6.15%
 2     collocate general  REF                                    153       0.29%
 2     integrate general  REF                                    153       0.29%
 1     collocate ortho    REF                                     84       0.16%
 -------------------------------------------------------------------------------

 MEMORY| Estimated peak process memory [MiB]                                1794

 -------------------------------------------------------------------------------
 ----                             MULTIGRID INFO                            ----
 -------------------------------------------------------------------------------
 count for grid        1:          15135          cutoff [a.u.]          200.00
 count for grid        2:           8434          cutoff [a.u.]           66.67
 count for grid        3:           6665          cutoff [a.u.]           22.22
 count for grid        4:           4895          cutoff [a.u.]            7.41
 total gridlevel count  :          35129

 -------------------------------------------------------------------------------
 -                                                                             -
 -                           R E F E R E N C E S                               -
 -                                                                             -
 -------------------------------------------------------------------------------
 
 CP2K version 2023.1 (Development Version), the CP2K developers group (2023).
 CP2K is freely available from https://www.cp2k.org/ .

 Kuehne,Thomas D.; Iannuzzi,Marcella; Del Ben,Mauro;
 Rybkin,Vladimir V.; Seewald,Patrick; Stein,Frederick; Laino,Teodoro;
 Khaliullin,Rustam Z.; Schuett,Ole; Schiffmann,Florian; Golze,Dorothea;
 Wilhelm,Jan; Chulkov,Sergey; Bani-Hashemian,Mohammad Hossein;
 Weber,Valery; Borstnik,Urban; Taillefumier,Mathieu;
 Jakobovits,Alice Shoshana; Lazzaro,Alfio; Pabst,Hans; Mueller,Tiziano;
 Schade,Robert; Guidon,Manuel; Andermatt,Samuel; Holmberg,Nico;
 Schenter,Gregory K.; Hehn,Anna; Bussy,Augustin; Belleflamme,Fabian;
 Tabacchi,Gloria; Gloess,Andreas; Lass,Michael; Bethune,Iain;
 Mundy,Christopher J.; Plessl,Christian; Watkins,Matt;
 VandeVondele,Joost; Krack,Matthias; Hutter,Juerg. 
 The Journal of Chemical Physics, 152 (19), (2020). 
 CP2K: An electronic structure and molecular dynamics software package -
 Quickstep: Efficient and accurate electronic structure calculations.
 https://doi.org/10.1063/5.0007045

 Schuett, Ole; Messmer, Peter; Hutter, Juerg; VandeVondele, Joost. 
 Electronic Structure Calculations on Graphics Processing Units, John
 Wiley & Sons, Ltd, 173-190 (2016). 
 GPU-Accelerated Sparse Matrix-Matrix Multiplication for
 Linear Scaling Density Functional Theory.
 https://doi.org/10.1002/9781118670712.ch8

 Borstnik, U; VandeVondele, J; Weber, V; Hutter, J. 
 PARALLEL COMPUTING, 40 (5-6), 47-58 (2014). 
 Sparse matrix multiplication: The distributed block-compressed sparse
 row library.
 https://doi.org/10.1016/j.parco.2014.03.012

 Hutter, J; Iannuzzi, M; Schiffmann, F; VandeVondele, J. 
 WIREs Comput Mol Sci., 4 (1), 15-25 (2014). 
 CP2K: atomistic simulations of condensed matter systems.
 https://doi.org/10.1002/wcms.1159

 VandeVondele, J; Hutter, J. 
 JOURNAL OF CHEMICAL PHYSICS, 127 (11), 114105 (2007). 
 Gaussian basis sets for accurate calculations on molecular systems in
 gas and condensed phases.
 https://doi.org/10.1063/1.2770708

 Genovese, L; Deutsch, T; Goedecker, S. 
 JOURNAL OF CHEMICAL PHYSICS, 127 (5), 054704 (2007). 
 Efficient and accurate three-dimensional Poisson solver for surface
 problems.
 https://doi.org/10.1063/1.2754685

 Genovese, L; Deutsch, T; Neelov, A; Goedecker, S; Beylkin, G. 
 JOURNAL OF CHEMICAL PHYSICS, 125 (7), 074105 (2006). 
 Efficient solution of Poisson's equation with free boundary conditions.
 https://doi.org/10.1063/1.2335442

 Krack, M. 
 THEORETICAL CHEMISTRY ACCOUNTS, 114 (1-3), 145-152 (2005). 
 Pseudopotentials for H to Kr optimized for gradient-corrected
 exchange-correlation functionals.
 https://doi.org/10.1007/s00214-005-0655-y

 Frigo, M; Johnson, SG. 
 PROCEEDINGS OF THE IEEE, 93 (2), 216-231 (2005). 
 The design and implementation of FFTW3.
 https://doi.org/10.1109/JPROC.2004.840301

 VandeVondele, J; Hutter, J. 
 JOURNAL OF CHEMICAL PHYSICS, 118 (10), 4365-4369 (2003). 
 An efficient orbital transformation method for electronic structure
 calculations.
 https://doi.org/10.1063/1.1543154

 Lippert, G; Hutter, J; Parrinello, M. 
 THEORETICAL CHEMISTRY ACCOUNTS, 103 (2), 124-140 (1999). 
 The Gaussian and augmented-plane-wave density functional method for ab
 initio molecular dynamics simulations.
 https://doi.org/10.1007/s002140050523

 Krack, M; Parrinello, M. 
 PHYSICAL CHEMISTRY CHEMICAL PHYSICS, 2 (10), 2105-2112 (2000). 
 All-electron ab-initio molecular dynamics.
 https://doi.org/10.1039/b001167n

 Hartwigsen, C; Goedecker, S; Hutter, J. 
 PHYSICAL REVIEW B, 58 (7), 3641-3662 (1998). 
 Relativistic separable dual-space Gaussian pseudopotentials from H to Rn.
 https://doi.org/10.1103/PhysRevB.58.3641

 Perdew, JP; Burke, K; Ernzerhof, M. 
 PHYSICAL REVIEW LETTERS, 77 (18), 3865-3868 (1996). 
 Generalized gradient approximation made simple.
 https://doi.org/10.1103/PhysRevLett.77.3865

 Goedecker, S; Teter, M; Hutter, J. 
 PHYSICAL REVIEW B, 54 (3), 1703-1710 (1996). 
 Separable dual-space Gaussian pseudopotentials.
 https://doi.org/10.1103/PhysRevB.54.1703


 -------------------------------------------------------------------------------
 -                                                                             -
 -                                T I M I N G                                  -
 -                                                                             -
 -------------------------------------------------------------------------------
 SUBROUTINE                       CALLS  ASD         SELF TIME        TOTAL TIME
                                MAXIMUM       AVERAGE  MAXIMUM  AVERAGE  MAXIMUM
 CP2K                                 1  1.0    0.102    0.102  146.611  146.611
 qs_energies                          1  2.0    0.000    0.000  144.052  144.052
 scf_env_do_scf                       1  3.0    0.000    0.000  140.652  140.652
 scf_env_do_scf_inner_loop           17  4.0    0.001    0.001  130.561  130.561
 qs_ks_update_qs_env                 18  5.0    0.000    0.000  127.043  127.043
 rebuild_ks_matrix                   17  6.0    0.000    0.000  127.043  127.043
 qs_ks_build_kohn_sham_matrix        17  7.0    0.003    0.003  127.043  127.043
 pw_transfer                        372 10.0    0.020    0.020   76.830   76.830
 fft_wrap_pw1pw2                    355 11.0    0.003    0.003   76.644   76.644
 fft_wrap_pw1pw2_200                244 12.3    6.449    6.449   74.976   74.976
 qs_vxc_create                       17  8.0    0.000    0.000   72.335   72.335
 xc_vxc_pw_create                    17  9.0    0.858    0.858   72.335   72.335
 xc_rho_set_and_dset_create          17 10.0    0.771    0.771   46.169   46.169
 fft3d_s                            356 13.0   37.298   37.298   37.316   37.316
 xc_pw_derive                       102 11.0    0.001    0.001   34.826   34.826
 pw_poisson_solve                    17  8.0    3.211    3.211   32.237   32.237
 xc_functional_eval                 323 10.1    0.001    0.001   29.852   29.852
 pbe_lda_eval                       323 11.1   29.851   29.851   29.851   29.851
 xc_pw_divergence                    17 10.0    0.001    0.001   24.965   24.965
 pw_gather_s                        182 12.6   19.608   19.608   19.608   19.608
 qs_rho_update_rho_low               18  5.0    0.000    0.000   14.399   14.399
 calculate_rho_elec                  18  6.0    0.440    0.440   14.370   14.370
 pw_scatter_s                       173 13.4   13.189   13.189   13.189   13.189
 ps_wavelet_solve                    17  9.0   12.600   12.600   13.023   13.023
 density_rs2pw                       18  7.0    0.001    0.001   12.609   12.609
 init_scf_loop                        1  4.0    0.000    0.000   10.091   10.091
 sum_up_and_integrate                17  8.0    0.550    0.550    8.644    8.644
 integrate_v_rspace                  17  9.0    0.001    0.001    8.094    8.094
 prepare_gapw_den                    17  8.0    0.000    0.000    7.271    7.271
 put_rho0_on_grid                    17  9.0    0.424    0.424    7.061    7.061
 potential_pw2rs                     17 10.0    0.015    0.015    6.989    6.989
 -------------------------------------------------------------------------------

 The number of warnings for this run is : 1
 
 -------------------------------------------------------------------------------
  **** **** ******  **  PROGRAM ENDED AT                 2023-04-05 11:09:24.255
 ***** ** ***  *** **   PROGRAM RAN ON                                eu-a2p-294
 **    ****   ******    PROGRAM RAN BY                                 jbachmann
 ***** **    ** ** **   PROGRAM PROCESS ID                                 84852
  **** **  *******  **  PROGRAM STOPPED IN /cluster/home/jbachmann/Molecular-and
                                           -Materials-Modelling-FS2023/exercise7
                                           /PBE/DZVP
