       3
 i =        1, E =       -16.9376289335
  H         6.3195895308        7.2607493990        7.4999968681
  O         7.4889212553        7.7476775413        7.5000021460
  H         8.7051845673        7.3084857984        7.5000009857
       3
 i =        2, E =       -17.0338645584
  H         6.5695895308        7.3085387433        7.5000065691
  O         7.4639250485        7.6684823881        7.4999957546
  H         8.4801877055        7.3399026853        7.4999976698
       3
 i =        3, E =       -17.0445896373
  H         6.7299530367        7.1878216535        7.5000001556
  O         7.5535613489        7.8695590512        7.4999976546
  H         8.2301877055        7.2595264138        7.5000021901
       3
 i =        4, E =       -16.9722266803
  H         6.7966543856        7.1977020393        7.4999858268
  O         7.4986786706        8.1051692697        7.5000040357
  H         8.2183630917        7.0140302562        7.5000101477
       3
 i =        5, E =       -17.0411672816
  H         6.6842075872        7.3561721566        7.5000014534
  O         7.4826198268        7.8551692697        7.4999915869
  H         8.3468814891        7.1055563056        7.5000069640
       3
 i =        6, E =       -17.0489033354
  H         6.6009374759        7.2818357187        7.5000085710
  O         7.5535762359        7.7646718193        7.4999947208
  H         8.3592112560        7.2704302818        7.4999967200
       3
 i =        7, E =       -17.0615542803
  H         6.6824796098        7.2722017659        7.5000043341
  O         7.5147157999        7.8320649533        7.4999955447
  H         8.3165275850        7.2126747001        7.5000001855
       3
 i =        8, E =       -17.0616557385
  H         6.7021850671        7.2674174712        7.5000043274
  O         7.5167434313        7.8328869852        7.4999957519
  H         8.2947949113        7.2166389248        7.4999999931
       3
 i =        9, E =       -17.0617943426
  H         6.6923773236        7.2669019436        7.5000043427
  O         7.5167773102        7.8325781139        7.4999956596
  H         8.3045666967        7.2174658811        7.5000000707
       3
 i =       10, E =       -17.0617945248
  H         6.6926433383        7.2671093465        7.5000043463
  O         7.5167195867        7.8325236831        7.4999956655
  H         8.3043539929        7.2173173893        7.5000000637
       3
 i =       11, E =       -17.0617945243
  H         6.6926433383        7.2671093465        7.5000043463
  O         7.5167195867        7.8325236831        7.4999956655
  H         8.3043539929        7.2173173893        7.5000000637
