 DBCSR| CPU Multiplication driver                                           BLAS (U)
 DBCSR| Multrec recursion limit                                              512 (U)
 DBCSR| Multiplication stack size                                           1000 (D)
 DBCSR| Maximum elements for images                                    UNLIMITED (U)
 DBCSR| Multiplicative factor virtual images                                   1 (U)
 DBCSR| Use multiplication densification                                       T (D)
 DBCSR| Multiplication size stacks                                             3 (U)
 DBCSR| Use memory pool for CPU allocation                                     F (U)
 DBCSR| OMP: Current number of threads                                         1
 DBCSR| OMP: Max number of threads                                             1
 DBCSR| Split modifier for TAS multiplication algorithm                  1.0E+00 (U)


  **** **** ******  **  PROGRAM STARTED AT               2023-04-05 10:31:42.473
 ***** ** ***  *** **   PROGRAM STARTED ON                           eu-g5-002-3
 **    ****   ******    PROGRAM STARTED BY                             jbachmann
 ***** **    ** ** **   PROGRAM PROCESS ID                                 24961
  **** **  *******  **  PROGRAM STARTED IN /cluster/home/jbachmann/Molecular-and
                                           -Materials-Modelling-FS2023/exercise7
                                           /B3LYP/SZV

 CP2K| version string:                 CP2K version 2023.1 (Development Version)
 CP2K| source code revision number:                                  git:dc34ec9
 CP2K| cp2kflags: omp libint fftw3 libxc max_contr=4 spglib libvori libbqb      
 CP2K| is freely available from                            https://www.cp2k.org/
 CP2K| Program compiled at                         Mon Mar 27 23:22:21 CEST 2023
 CP2K| Program compiled on                                           eu-g5-025-4
 CP2K| Program compiled for                              Linux-gnu-x86_64-static
 CP2K| Data directory path      /cluster/apps/nss/gcc-6.3.0/cp2k/8.2/x86_64/data
 CP2K| Input file name                                                   H2O.inp

 GLOBAL| Force Environment number                                              1
 GLOBAL| Basis set file name                                        BASIS_MOLOPT
 GLOBAL| Potential file name                                      GTH_POTENTIALS
 GLOBAL| MM Potential file name                                     MM_POTENTIAL
 GLOBAL| Coordinate file name                                            H2O.xyz
 GLOBAL| Method name                                                        CP2K
 GLOBAL| Project name                                                        H2O
 GLOBAL| Run type                                                        GEO_OPT
 GLOBAL| FFT library                                                       FFTW3
 GLOBAL| Diagonalization library                                       ScaLAPACK
 GLOBAL| DGEMM library                                                      BLAS
 GLOBAL| Orthonormality check for eigenvectors                          DISABLED
 GLOBAL| Matrix multiplication library                                 ScaLAPACK
 GLOBAL| All-to-all communication in single precision                          F
 GLOBAL| FFTs using library dependent lengths                                  F
 GLOBAL| Grid backend                                                       AUTO
 GLOBAL| Global print level                                                  LOW
 GLOBAL| MPI I/O enabled                                                       T
 GLOBAL| Total number of message passing processes                             1
 GLOBAL| Number of threads for this process                                    1
 GLOBAL| This output is from process                                           0
 GLOBAL| Stack size for threads created by OpenMP (OMP_STACKSIZE)        default
 GLOBAL| CPU model name                          AMD EPYC 7742 64-Core Processor

 MEMORY| system memory details [Kb]
 MEMORY|                        rank 0           min           max       average
 MEMORY| MemTotal            525874016     525874016     525874016     525874016
 MEMORY| MemFree             388523284     388523284     388523284     388523284
 MEMORY| Buffers                     0             0             0             0
 MEMORY| Cached               97290164      97290164      97290164      97290164
 MEMORY| Slab                  4841416       4841416       4841416       4841416
 MEMORY| SReclaimable          2857004       2857004       2857004       2857004
 MEMORY| MemLikelyFree       488670452     488670452     488670452     488670452


 GENERATE|  Preliminary Number of Bonds generated:                             0
 GENERATE|  Achieved consistency in connectivity generation.

 *******************************************************************************
 *******************************************************************************
 **                                                                           **
 **     #####                         ##              ##                      **
 **    ##   ##            ##          ##              ##                      **
 **   ##     ##                       ##            ######                    **
 **   ##     ##  ##   ##  ##   #####  ##  ##   ####   ##    #####    #####    **
 **   ##     ##  ##   ##  ##  ##      ## ##   ##      ##   ##   ##  ##   ##   **
 **   ##  ## ##  ##   ##  ##  ##      ####     ###    ##   ######   ######    **
 **    ##  ###   ##   ##  ##  ##      ## ##      ##   ##   ##       ##        **
 **     #######   #####   ##   #####  ##  ##  ####    ##    #####   ##        **
 **           ##                                                    ##        **
 **                                                                           **
 **                                                ... make the atoms dance   **
 **                                                                           **
 **            Copyright (C) by CP2K developers group (2000-2023)             **
 **                      J. Chem. Phys. 152, 194103 (2020)                    **
 **                                                                           **
 *******************************************************************************


 TOTAL NUMBERS AND MAXIMUM NUMBERS

  Total number of            - Atomic kinds:                                   2
                             - Atoms:                                          3
                             - Shell sets:                                     3
                             - Shells:                                         4
                             - Primitive Cartesian functions:                 21
                             - Cartesian basis functions:                      6
                             - Spherical basis functions:                      6

  Maximum angular momentum of- Orbital basis functions:                        1
                             - Local part of the GTH pseudopotential:          2
                             - Non-local part of the GTH pseudopotential:      0


 SCF PARAMETERS         Density guess:                                   RESTART
                        --------------------------------------------------------
                        max_scf:                                              50
                        max_scf_history:                                       0
                        max_diis:                                              4
                        --------------------------------------------------------
                        eps_scf:                                        1.00E-04
                        eps_scf_history:                                0.00E+00
                        eps_diis:                                       1.00E-01
                        eps_eigval:                                     1.00E-05
                        --------------------------------------------------------
                        level_shift [a.u.]:                             0.000000
                        --------------------------------------------------------
                        Outer loop SCF in use 
                        No variables optimised in outer loop
                        eps_scf                                         1.00E-04
                        max_scf                                              500
                        No outer loop optimization
                        step_size                                       5.00E-01

 PW_GRID| Information for grid number                                          1
 PW_GRID| Cutoff [a.u.]                                                    200.0
 PW_GRID| spherical cutoff:                                                   NO
 PW_GRID|   Bounds   1            -96      95                Points:         192
 PW_GRID|   Bounds   2            -96      95                Points:         192
 PW_GRID|   Bounds   3            -96      95                Points:         192
 PW_GRID| Volume element (a.u.^3)  0.3218E-02     Volume (a.u.^3)     22775.6292
 PW_GRID| Grid span                                                    FULLSPACE

 PW_GRID| Information for grid number                                          2
 PW_GRID| Number of the reference grid                                         1
 PW_GRID| Cutoff [a.u.]                                                     66.7
 PW_GRID| spherical cutoff:                                                   NO
 PW_GRID|   Bounds   1            -54      53                Points:         108
 PW_GRID|   Bounds   2            -54      53                Points:         108
 PW_GRID|   Bounds   3            -54      53                Points:         108
 PW_GRID| Volume element (a.u.^3)  0.1808E-01     Volume (a.u.^3)     22775.6292
 PW_GRID| Grid span                                                    FULLSPACE

 PW_GRID| Information for grid number                                          3
 PW_GRID| Number of the reference grid                                         1
 PW_GRID| Cutoff [a.u.]                                                     22.2
 PW_GRID| spherical cutoff:                                                   NO
 PW_GRID|   Bounds   1            -32      31                Points:          64
 PW_GRID|   Bounds   2            -32      31                Points:          64
 PW_GRID|   Bounds   3            -32      31                Points:          64
 PW_GRID| Volume element (a.u.^3)  0.8688E-01     Volume (a.u.^3)     22775.6292
 PW_GRID| Grid span                                                    FULLSPACE

 PW_GRID| Information for grid number                                          4
 PW_GRID| Number of the reference grid                                         1
 PW_GRID| Cutoff [a.u.]                                                      7.4
 PW_GRID| spherical cutoff:                                                   NO
 PW_GRID|   Bounds   1            -18      17                Points:          36
 PW_GRID|   Bounds   2            -18      17                Points:          36
 PW_GRID|   Bounds   3            -18      17                Points:          36
 PW_GRID| Volume element (a.u.^3)  0.4882         Volume (a.u.^3)     22775.6292
 PW_GRID| Grid span                                                    FULLSPACE

 POISSON| Solver                                                         WAVELET
 POISSON| Wavelet| Scaling function                                           40
 POISSON| Periodicity                                                       NONE

 RS_GRID| Information for grid number                                          1
 RS_GRID|   Bounds   1            -96      95                Points:         192
 RS_GRID|   Bounds   2            -96      95                Points:         192
 RS_GRID|   Bounds   3            -96      95                Points:         192

 RS_GRID| Information for grid number                                          2
 RS_GRID|   Bounds   1            -54      53                Points:         108
 RS_GRID|   Bounds   2            -54      53                Points:         108
 RS_GRID|   Bounds   3            -54      53                Points:         108

 RS_GRID| Information for grid number                                          3
 RS_GRID|   Bounds   1            -32      31                Points:          64
 RS_GRID|   Bounds   2            -32      31                Points:          64
 RS_GRID|   Bounds   3            -32      31                Points:          64

 RS_GRID| Information for grid number                                          4
 RS_GRID|   Bounds   1            -18      17                Points:          36
 RS_GRID|   Bounds   2            -18      17                Points:          36
 RS_GRID|   Bounds   3            -18      17                Points:          36

 BFGS| Use rational function optimization for step estimation:                NO
 BFGS| Use model Hessian for initial guess:                                  YES
 BFGS| Restart Hessian:                                                       NO
 BFGS| Trust radius:                                                       0.472

 *******************************************************************************
 ***                     STARTING GEOMETRY OPTIMIZATION                      ***
 ***                                   BFGS                                  ***
 *******************************************************************************

 Number of electrons:                                                          8
 Number of occupied orbitals:                                                  4
 Number of molecular orbitals:                                                 4

 Number of orbital functions:                                                  6
 Number of independent orbital functions:                                      6

 Extrapolation method: initial_guess

 *** WARNING in qs_initial_guess.F:305 :: User requested to restart the    ***
 *** wavefunction from the file named: H2O-RESTART.wfn. This file does not ***
 *** exist. Please check the existence of the file or change properly the  ***
 *** value of the keyword WFN_RESTART_FILE_NAME. Calculation continues     ***
 *** using ATOMIC GUESS.                                                   ***



 SCF WAVEFUNCTION OPTIMIZATION

  ----------------------------------- OT ---------------------------------------
  Minimizer      : DIIS                : direct inversion
                                         in the iterative subspace
                                         using   7 DIIS vectors
                                         safer DIIS on
  Preconditioner : FULL_SINGLE_INVERSE : inversion of 
                                         H + eS - 2*(Sc)(c^T*H*c+const)(Sc)^T
  Precond_solver : DEFAULT
  stepsize       :    0.08000000                  energy_gap     :    0.08000000
  eps_taylor     :   0.10000E-15                  max_taylor     :             4
  ----------------------------------- OT ---------------------------------------

  Step     Update method      Time    Convergence         Total energy    Change
  ------------------------------------------------------------------------------
     1 OT DIIS     0.80E-01   10.9     0.82044519       -16.0588215935 -1.61E+01
     2 OT DIIS     0.80E-01    8.7     0.56348367       -16.4112250482 -3.52E-01
     3 OT DIIS     0.80E-01    8.9     0.18508326       -16.6155331345 -2.04E-01
     4 OT DIIS     0.80E-01    9.3     0.15774973       -16.6677592388 -5.22E-02
     5 OT DIIS     0.80E-01    9.6     0.14437076       -16.7469213761 -7.92E-02
     6 OT DIIS     0.80E-01    9.0     0.25499094       -16.7343215746  1.26E-02
     7 OT DIIS     0.80E-01    8.3     0.16202400       -16.7927182948 -5.84E-02
     8 OT DIIS     0.80E-01    8.0     0.62596188       -16.4279875446  3.65E-01
     9 OT DIIS     0.80E-01    8.0     0.14763974       -16.7045990565 -2.77E-01
    10 OT DIIS     0.80E-01    8.0     0.08694726       -16.8033272790 -9.87E-02
    11 OT SD       0.80E-01    8.0     0.01607892       -16.8111988002 -7.87E-03
    12 OT SD       0.80E-01    7.9     0.00977839       -16.8114666865 -2.68E-04
    13 OT SD       0.80E-01    8.1     0.00727536       -16.8115589393 -9.23E-05
    14 OT DIIS     0.80E-01    8.1     0.00639967       -16.8115985819 -3.96E-05
    15 OT DIIS     0.80E-01    8.1     0.00432187       -16.8116329417 -3.44E-05
    16 OT DIIS     0.80E-01    8.1     0.00658573       -16.8116202134  1.27E-05
    17 OT DIIS     0.80E-01    8.0     0.00085177       -16.8116571090 -3.69E-05
    18 OT DIIS     0.80E-01    8.0     0.00023308       -16.8116607052 -3.60E-06
    19 OT DIIS     0.80E-01    8.3     0.00007090       -16.8116607693 -6.41E-08

  *** SCF run converged in    19 steps ***


  Electronic density on regular grids:         -7.6592287555        0.3407712445
  Core density on regular grids:                8.0000000000       -0.0000000000
  Hard and soft densities (Lebedev):          -12.7920289908      -12.4512574936
  Total Rho_soft + Rho1_hard - Rho1_soft       -8.0000002527
  Total charge density (r-space):              -0.0000002527
  Total Rho_soft + Rho0_soft (g-space):        -0.0000018190

  Overlap energy of the core charge distribution:               0.00000000000000
  Self energy of the core charge distribution:                -44.34715499673765
  Core Hamiltonian energy:                                     13.20606967271030
  Hartree energy:                                              19.99526298974674
  Exchange-correlation energy:                                 -3.00002852338549
  Hartree-Fock Exchange energy:                                -0.74524166108111

  GAPW| Exc from hard and soft atomic rho1:                    -0.28087514047976
  GAPW| local Eh = 1 center integrals:                         -1.63969311010235

  Total energy:                                               -16.81166076932931

  outer SCF iter =    1 RMS gradient =   0.71E-04 energy =        -16.8116607693
  outer SCF loop converged in   1 iterations or   19 steps

  
  Eigenvalues of the occupied subspace spin            1
 ---------------------------------------------
      -0.76118424     -0.30705339     -0.17619175     -0.15721021
 Fermi Energy [eV] :   -4.277907
  
  Lowest Eigenvalues of the unoccupied subspace spin            1
 -----------------------------------------------------
 OT| Eigensolver reached convergence in 7 iterations
       0.02414053
  
 HOMO - LUMO gap [eV] :    4.934805

 ENERGY| Total FORCE_EVAL ( QS ) energy [a.u.]:              -16.811660783623029

 --------  Informations at step =     0 ------------
  Optimization Method        =                 BFGS
  Total Energy               =       -16.8116607836
  Used time                  =              173.812
 ---------------------------------------------------

 --------------------------
 OPTIMIZATION STEP:      1
 --------------------------

  Step is scaled; Scaling factor =  0.41916

 Number of electrons:                                                          8
 Number of occupied orbitals:                                                  4
 Number of molecular orbitals:                                                 4

 Number of orbital functions:                                                  6
 Number of independent orbital functions:                                      6

 Extrapolation method: ASPC


 SCF WAVEFUNCTION OPTIMIZATION

  ----------------------------------- OT ---------------------------------------
  Minimizer      : DIIS                : direct inversion
                                         in the iterative subspace
                                         using   7 DIIS vectors
                                         safer DIIS on
  Preconditioner : FULL_SINGLE_INVERSE : inversion of 
                                         H + eS - 2*(Sc)(c^T*H*c+const)(Sc)^T
  Precond_solver : DEFAULT
  stepsize       :    0.08000000                  energy_gap     :    0.08000000
  eps_taylor     :   0.10000E-15                  max_taylor     :             4
  ----------------------------------- OT ---------------------------------------

  Step     Update method      Time    Convergence         Total energy    Change
  ------------------------------------------------------------------------------
     1 OT DIIS     0.80E-01    7.3     0.04668440       -16.9325731924 -1.69E+01
     2 OT DIIS     0.80E-01    7.9     0.02553683       -16.9357772266 -3.20E-03
     3 OT DIIS     0.80E-01    8.1     0.00843436       -16.9372931603 -1.52E-03
     4 OT DIIS     0.80E-01    8.0     0.00502965       -16.9375154515 -2.22E-04
     5 OT DIIS     0.80E-01    8.2     0.00051743       -16.9376280106 -1.13E-04
     6 OT DIIS     0.80E-01    8.1     0.00023867       -16.9376287345 -7.24E-07
     7 OT SD       0.80E-01    8.2     0.00032907       -16.9376285550  1.80E-07
     8 OT DIIS     0.80E-01    8.3     0.00022569       -16.9376287289 -1.74E-07
     9 OT DIIS     0.80E-01    8.0     0.00000307       -16.9376289335 -2.05E-07

  *** SCF run converged in     9 steps ***


  Electronic density on regular grids:         -7.6394899302        0.3605100698
  Core density on regular grids:                8.0000000000       -0.0000000000
  Hard and soft densities (Lebedev):          -18.2625800553      -17.9020697979
  Total Rho_soft + Rho1_hard - Rho1_soft       -8.0000001877
  Total charge density (r-space):              -0.0000001877
  Total Rho_soft + Rho0_soft (g-space):        -0.0000018668

  Overlap energy of the core charge distribution:               0.00000000000011
  Self energy of the core charge distribution:                -44.34715499673765
  Core Hamiltonian energy:                                     13.17638811817953
  Hartree energy:                                              19.90108765277411
  Exchange-correlation energy:                                 -3.02116941359548
  Hartree-Fock Exchange energy:                                -0.76488353851542

  GAPW| Exc from hard and soft atomic rho1:                    -0.29671831856327
  GAPW| local Eh = 1 center integrals:                         -1.58517843706113

  Total energy:                                               -16.93762893351920

  outer SCF iter =    1 RMS gradient =   0.31E-05 energy =        -16.9376289335
  outer SCF loop converged in   1 iterations or    9 steps

  
  Eigenvalues of the occupied subspace spin            1
 ---------------------------------------------
      -0.81021537     -0.37724072     -0.20162517     -0.17832078
 Fermi Energy [eV] :   -4.852355
  
  Lowest Eigenvalues of the unoccupied subspace spin            1
 -----------------------------------------------------
 OT| Eigensolver reached convergence in 7 iterations
       0.11293505
  
 HOMO - LUMO gap [eV] :    7.925474

 ENERGY| Total FORCE_EVAL ( QS ) energy [a.u.]:              -16.937628933523950

 --------  Informations at step =     1 ------------
  Optimization Method        =                 BFGS
  Total Energy               =       -16.9376289335
  Real energy change         =        -0.1259681499
  Predicted change in energy =        -0.0956873275
  Scaling factor             =         0.4191642879
  Step size                  =         0.4724315332
  Trust radius               =         0.4724315332
  Decrease in energy         =                  YES
  Used time                  =               84.248

  Convergence check :
  Max. step size             =         0.4724315332
  Conv. limit for step size  =         0.0100000000
  Convergence in step size   =                   NO
  RMS step size              =         0.2127118477
  Conv. limit for RMS step   =         0.0030000000
  Convergence in RMS step    =                   NO
  Max. gradient              =         0.1415824424
  Conv. limit for gradients  =         0.0010000000
  Conv. for gradients        =                   NO
  RMS gradient               =         0.0669967191
  Conv. limit for RMS grad.  =         0.0003000000
  Conv. for gradients        =                   NO
 ---------------------------------------------------
 Estimated peak process memory after this step [MiB]                        1850

 --------------------------
 OPTIMIZATION STEP:      2
 --------------------------

  Step is scaled; Scaling factor =  0.00033

 Number of electrons:                                                          8
 Number of occupied orbitals:                                                  4
 Number of molecular orbitals:                                                 4

 Number of orbital functions:                                                  6
 Number of independent orbital functions:                                      6

 Extrapolation method: ASPC


 SCF WAVEFUNCTION OPTIMIZATION

  ----------------------------------- OT ---------------------------------------
  Minimizer      : DIIS                : direct inversion
                                         in the iterative subspace
                                         using   7 DIIS vectors
                                         safer DIIS on
  Preconditioner : FULL_SINGLE_INVERSE : inversion of 
                                         H + eS - 2*(Sc)(c^T*H*c+const)(Sc)^T
  Precond_solver : DEFAULT
  stepsize       :    0.08000000                  energy_gap     :    0.08000000
  eps_taylor     :   0.10000E-15                  max_taylor     :             4
  ----------------------------------- OT ---------------------------------------

  Step     Update method      Time    Convergence         Total energy    Change
  ------------------------------------------------------------------------------
     1 OT DIIS     0.80E-01    7.1     0.03017807       -17.0303028530 -1.70E+01
     2 OT DIIS     0.80E-01    7.9     0.02211361       -17.0318121324 -1.51E-03
     3 OT DIIS     0.80E-01    7.8     0.00709603       -17.0336416175 -1.83E-03
     4 OT DIIS     0.80E-01    7.7     0.00210729       -17.0338510179 -2.09E-04
     5 OT SD       0.80E-01    7.9     0.00049290       -17.0338637048 -1.27E-05
     6 OT SD       0.80E-01    7.7     0.00034158       -17.0338640966 -3.92E-07
     7 OT DIIS     0.80E-01    7.6     0.00025088       -17.0338642900 -1.93E-07
     8 OT DIIS     0.80E-01    7.6     0.00054049       -17.0338635050  7.85E-07
     9 OT DIIS     0.80E-01    7.6     0.00001521       -17.0338645578 -1.05E-06

  *** SCF run converged in     9 steps ***


  Electronic density on regular grids:         -7.5789421333        0.4210578667
  Core density on regular grids:                8.0000000000       -0.0000000000
  Hard and soft densities (Lebedev):          -24.2237124892      -23.8026547138
  Total Rho_soft + Rho1_hard - Rho1_soft       -7.9999999087
  Total charge density (r-space):               0.0000000913
  Total Rho_soft + Rho0_soft (g-space):        -0.0000015404

  Overlap energy of the core charge distribution:               0.00000002713854
  Self energy of the core charge distribution:                -44.34715499673765
  Core Hamiltonian energy:                                     13.36651493423512
  Hartree energy:                                              19.56919544388495
  Exchange-correlation energy:                                 -3.05102575583208
  Hartree-Fock Exchange energy:                                -0.79385396747205

  GAPW| Exc from hard and soft atomic rho1:                    -0.34578808175238
  GAPW| local Eh = 1 center integrals:                         -1.43175216128460

  Total energy:                                               -17.03386455782013

  outer SCF iter =    1 RMS gradient =   0.15E-04 energy =        -17.0338645578
  outer SCF loop converged in   1 iterations or    9 steps

  
  Eigenvalues of the occupied subspace spin            1
 ---------------------------------------------
      -0.91567828     -0.50136433     -0.23734851     -0.22406714
 Fermi Energy [eV] :   -6.097177
  
  Lowest Eigenvalues of the unoccupied subspace spin            1
 -----------------------------------------------------
 OT| Eigensolver reached convergence in 7 iterations
       0.28821547
  
 HOMO - LUMO gap [eV] :   13.939919

 ENERGY| Total FORCE_EVAL ( QS ) energy [a.u.]:              -17.033864558375612

 --------  Informations at step =     2 ------------
  Optimization Method        =                 BFGS
  Total Energy               =       -17.0338645584
  Real energy change         =        -0.0962356249
  Predicted change in energy =        -0.1355955468
  Scaling factor             =         0.0003337480
  Step size                  =         0.4724315332
  Trust radius               =         0.4724315332
  Decrease in energy         =                  YES
  Used time                  =               80.377

  Convergence check :
  Max. step size             =         0.4724315332
  Conv. limit for step size  =         0.0100000000
  Convergence in step size   =                   NO
  RMS step size              =         0.2211788015
  Conv. limit for RMS step   =         0.0030000000
  Convergence in RMS step    =                   NO
  Max. gradient              =         0.0962513575
  Conv. limit for gradients  =         0.0010000000
  Conv. for gradients        =                   NO
  RMS gradient               =         0.0474476242
  Conv. limit for RMS grad.  =         0.0003000000
  Conv. for gradients        =                   NO
 ---------------------------------------------------
 Estimated peak process memory after this step [MiB]                        1850

 --------------------------
 OPTIMIZATION STEP:      3
 --------------------------

  Step is scaled; Scaling factor =  0.56373

 Number of electrons:                                                          8
 Number of occupied orbitals:                                                  4
 Number of molecular orbitals:                                                 4

 Number of orbital functions:                                                  6
 Number of independent orbital functions:                                      6

 Extrapolation method: ASPC


 SCF WAVEFUNCTION OPTIMIZATION

  ----------------------------------- OT ---------------------------------------
  Minimizer      : DIIS                : direct inversion
                                         in the iterative subspace
                                         using   7 DIIS vectors
                                         safer DIIS on
  Preconditioner : FULL_SINGLE_INVERSE : inversion of 
                                         H + eS - 2*(Sc)(c^T*H*c+const)(Sc)^T
  Precond_solver : DEFAULT
  stepsize       :    0.08000000                  energy_gap     :    0.08000000
  eps_taylor     :   0.10000E-15                  max_taylor     :             4
  ----------------------------------- OT ---------------------------------------

  Step     Update method      Time    Convergence         Total energy    Change
  ------------------------------------------------------------------------------
     1 OT DIIS     0.80E-01    6.9     0.15088674       -16.9603008485 -1.70E+01
     2 OT DIIS     0.80E-01    7.5     0.11227652       -16.9984066625 -3.81E-02
     3 OT DIIS     0.80E-01    7.6     0.02980553       -17.0423056332 -4.39E-02
     4 OT DIIS     0.80E-01    7.6     0.02801713       -17.0421626645  1.43E-04
     5 OT DIIS     0.80E-01    7.6     0.01155341       -17.0442591802 -2.10E-03
     6 OT DIIS     0.80E-01    7.6     0.00074970       -17.0445881533 -3.29E-04
     7 OT DIIS     0.80E-01    7.5     0.00073769       -17.0445880643  8.90E-08
     8 OT DIIS     0.80E-01    7.6     0.00064073       -17.0445885382 -4.74E-07
     9 OT DIIS     0.80E-01    7.6     0.00025217       -17.0445894686 -9.30E-07
    10 OT DIIS     0.80E-01    7.5     0.00004273       -17.0445896322 -1.64E-07

  *** SCF run converged in    10 steps ***


  Electronic density on regular grids:         -7.6378550410        0.3621449590
  Core density on regular grids:                8.0000000000       -0.0000000000
  Hard and soft densities (Lebedev):          -23.8640592446      -23.5019141790
  Total Rho_soft + Rho1_hard - Rho1_soft       -8.0000001067
  Total charge density (r-space):              -0.0000001067
  Total Rho_soft + Rho0_soft (g-space):        -0.0000017215

  Overlap energy of the core charge distribution:               0.00000017662252
  Self energy of the core charge distribution:                -44.34715499673765
  Core Hamiltonian energy:                                     13.20992456870478
  Hartree energy:                                              19.86397247367525
  Exchange-correlation energy:                                 -3.09483041753561
  Hartree-Fock Exchange energy:                                -0.79370325376029

  GAPW| Exc from hard and soft atomic rho1:                    -0.29666768789312
  GAPW| local Eh = 1 center integrals:                         -1.58613049529885

  Total energy:                                               -17.04458963222297

  outer SCF iter =    1 RMS gradient =   0.43E-04 energy =        -17.0445896322
  outer SCF loop converged in   1 iterations or   10 steps

  
  Eigenvalues of the occupied subspace spin            1
 ---------------------------------------------
      -0.98819870     -0.47459949     -0.32509548     -0.26063225
 Fermi Energy [eV] :   -7.092164
  
  Lowest Eigenvalues of the unoccupied subspace spin            1
 -----------------------------------------------------
 OT| Eigensolver reached convergence in 9 iterations
       0.35765838
  
 HOMO - LUMO gap [eV] :   16.824544

 ENERGY| Total FORCE_EVAL ( QS ) energy [a.u.]:              -17.044589637334862

 --------  Informations at step =     3 ------------
  Optimization Method        =                 BFGS
  Total Energy               =       -17.0445896373
  Real energy change         =        -0.0107250790
  Predicted change in energy =        -0.0576121386
  Scaling factor             =         0.5637304829
  Step size                  =         0.4724315332
  Trust radius               =         0.4724315332
  Decrease in energy         =                  YES
  Used time                  =               86.272

  Convergence check :
  Max. step size             =         0.4724315332
  Conv. limit for step size  =         0.0100000000
  Convergence in step size   =                   NO
  RMS step size              =         0.2501585560
  Conv. limit for RMS step   =         0.0030000000
  Convergence in RMS step    =                   NO
  Max. gradient              =         0.1483265619
  Conv. limit for gradients  =         0.0010000000
  Conv. for gradients        =                   NO
  RMS gradient               =         0.0712105507
  Conv. limit for RMS grad.  =         0.0003000000
  Conv. for gradients        =                   NO
 ---------------------------------------------------
 Estimated peak process memory after this step [MiB]                        1850

 --------------------------
 OPTIMIZATION STEP:      4
 --------------------------

 Number of electrons:                                                          8
 Number of occupied orbitals:                                                  4
 Number of molecular orbitals:                                                 4

 Number of orbital functions:                                                  6
 Number of independent orbital functions:                                      6

 Extrapolation method: ASPC


 SCF WAVEFUNCTION OPTIMIZATION

  ----------------------------------- OT ---------------------------------------
  Minimizer      : DIIS                : direct inversion
                                         in the iterative subspace
                                         using   7 DIIS vectors
                                         safer DIIS on
  Preconditioner : FULL_SINGLE_INVERSE : inversion of 
                                         H + eS - 2*(Sc)(c^T*H*c+const)(Sc)^T
  Precond_solver : DEFAULT
  stepsize       :    0.08000000                  energy_gap     :    0.08000000
  eps_taylor     :   0.10000E-15                  max_taylor     :             4
  ----------------------------------- OT ---------------------------------------

  Step     Update method      Time    Convergence         Total energy    Change
  ------------------------------------------------------------------------------
     1 OT DIIS     0.80E-01    6.9     0.15925761       -16.9244120620 -1.69E+01
     2 OT DIIS     0.80E-01    7.6     0.07539629       -16.9599660667 -3.56E-02
     3 OT DIIS     0.80E-01    7.5     0.01637072       -16.9712664427 -1.13E-02
     4 OT DIIS     0.80E-01    7.5     0.00793670       -16.9719840231 -7.18E-04
     5 OT DIIS     0.80E-01    7.5     0.00582849       -16.9721423029 -1.58E-04
     6 OT DIIS     0.80E-01    7.5     0.00063860       -16.9722253801 -8.31E-05
     7 OT DIIS     0.80E-01    7.6     0.00017667       -16.9722265607 -1.18E-06
     8 OT DIIS     0.80E-01    7.6     0.00016055       -16.9722266009 -4.02E-08
     9 OT DIIS     0.80E-01    7.6     0.00006073       -16.9722266720 -7.11E-08

  *** SCF run converged in     9 steps ***


  Electronic density on regular grids:         -7.6846858688        0.3153141312
  Core density on regular grids:                8.0000000000       -0.0000000000
  Hard and soft densities (Lebedev):          -20.5034190596      -20.1881047810
  Total Rho_soft + Rho1_hard - Rho1_soft       -8.0000001474
  Total charge density (r-space):              -0.0000001474
  Total Rho_soft + Rho0_soft (g-space):        -0.0000017832

  Overlap energy of the core charge distribution:               0.00000000001870
  Self energy of the core charge distribution:                -44.34715499673765
  Core Hamiltonian energy:                                     13.00737907418884
  Hartree energy:                                              20.15295379124014
  Exchange-correlation energy:                                 -3.05205498764906
  Hartree-Fock Exchange energy:                                -0.76365132200542

  GAPW| Exc from hard and soft atomic rho1:                    -0.25883864649613
  GAPW| local Eh = 1 center integrals:                         -1.71085958458652

  Total energy:                                               -16.97222667202710

  outer SCF iter =    1 RMS gradient =   0.61E-04 energy =        -16.9722266720
  outer SCF loop converged in   1 iterations or    9 steps

  
  Eigenvalues of the occupied subspace spin            1
 ---------------------------------------------
      -0.88477138     -0.34855076     -0.32719671     -0.22523570
 Fermi Energy [eV] :   -6.128975
  
  Lowest Eigenvalues of the unoccupied subspace spin            1
 -----------------------------------------------------
 OT| Eigensolver reached convergence in 11 iterations
       0.16852422
  
 HOMO - LUMO gap [eV] :   10.714752

 ENERGY| Total FORCE_EVAL ( QS ) energy [a.u.]:              -16.972226680316354

 --------  Informations at step =     4 ------------
  Optimization Method        =                 BFGS
  Total Energy               =       -16.9722266803
  Real energy change         =         0.0723629570
  Predicted change in energy =        -0.0334200319
  Scaling factor             =         0.5637304829
  Step size                  =         0.4639205045
  Trust radius               =         0.4724315332
  Decrease in energy         =                   NO
  Used time                  =               78.674

  Convergence check :
  Max. step size             =         0.4639205045
  Conv. limit for step size  =         0.0100000000
  Convergence in step size   =                   NO
  RMS step size              =         0.2213474119
  Conv. limit for RMS step   =         0.0030000000
  Convergence in RMS step    =                   NO
  Max. gradient              =         0.2014334044
  Conv. limit for gradients  =         0.0010000000
  Conv. for gradients        =                   NO
  RMS gradient               =         0.0838389237
  Conv. limit for RMS grad.  =         0.0003000000
  Conv. for gradients        =                   NO
 ---------------------------------------------------
 Estimated peak process memory after this step [MiB]                        1850

 --------------------------
 OPTIMIZATION STEP:      5
 --------------------------

  Step is scaled; Scaling factor =  0.81543

 Number of electrons:                                                          8
 Number of occupied orbitals:                                                  4
 Number of molecular orbitals:                                                 4

 Number of orbital functions:                                                  6
 Number of independent orbital functions:                                      6

 Extrapolation method: ASPC


 SCF WAVEFUNCTION OPTIMIZATION

  ----------------------------------- OT ---------------------------------------
  Minimizer      : DIIS                : direct inversion
                                         in the iterative subspace
                                         using   7 DIIS vectors
                                         safer DIIS on
  Preconditioner : FULL_SINGLE_INVERSE : inversion of 
                                         H + eS - 2*(Sc)(c^T*H*c+const)(Sc)^T
  Precond_solver : DEFAULT
  stepsize       :    0.08000000                  energy_gap     :    0.08000000
  eps_taylor     :   0.10000E-15                  max_taylor     :             4
  ----------------------------------- OT ---------------------------------------

  Step     Update method      Time    Convergence         Total energy    Change
  ------------------------------------------------------------------------------
     1 OT DIIS     0.80E-01    7.0     0.17777852       -16.9231358008 -1.69E+01
     2 OT DIIS     0.80E-01    7.8     0.12943182       -16.9753259322 -5.22E-02
     3 OT DIIS     0.80E-01    7.6     0.04209063       -17.0348370206 -5.95E-02
     4 OT DIIS     0.80E-01    7.6     0.01028608       -17.0407886869 -5.95E-03
     5 OT DIIS     0.80E-01    7.6     0.00514703       -17.0410865283 -2.98E-04
     6 OT DIIS     0.80E-01    7.6     0.00152405       -17.0411611161 -7.46E-05
     7 OT DIIS     0.80E-01    7.6     0.00100513       -17.0411654823 -4.37E-06
     8 OT DIIS     0.80E-01    7.6     0.00378564       -17.0411411187  2.44E-05
     9 OT DIIS     0.80E-01    7.6     0.00002797       -17.0411672797 -2.62E-05

  *** SCF run converged in     9 steps ***


  Electronic density on regular grids:         -7.6361706146        0.3638293854
  Core density on regular grids:                8.0000000000       -0.0000000000
  Hard and soft densities (Lebedev):          -23.3853827206      -23.0215533367
  Total Rho_soft + Rho1_hard - Rho1_soft       -7.9999999985
  Total charge density (r-space):               0.0000000015
  Total Rho_soft + Rho0_soft (g-space):        -0.0000016619

  Overlap energy of the core charge distribution:               0.00000006015666
  Self energy of the core charge distribution:                -44.34715499673765
  Core Hamiltonian energy:                                     13.18256088351143
  Hartree energy:                                              19.86795596087991
  Exchange-correlation energy:                                 -3.07706405636205
  Hartree-Fock Exchange energy:                                -0.78803478179815

  GAPW| Exc from hard and soft atomic rho1:                    -0.29812359317576
  GAPW| local Eh = 1 center integrals:                         -1.58130675612490

  Total energy:                                               -17.04116727965049

  outer SCF iter =    1 RMS gradient =   0.28E-04 energy =        -17.0411672797
  outer SCF loop converged in   1 iterations or    9 steps

  
  Eigenvalues of the occupied subspace spin            1
 ---------------------------------------------
      -0.94945846     -0.45963786     -0.29823768     -0.24409334
 Fermi Energy [eV] :   -6.642118
  
  Lowest Eigenvalues of the unoccupied subspace spin            1
 -----------------------------------------------------
 OT| Eigensolver reached convergence in 9 iterations
       0.28889064
  
 HOMO - LUMO gap [eV] :   14.503232

 ENERGY| Total FORCE_EVAL ( QS ) energy [a.u.]:              -17.041167281565237

 --------  Informations at step =     5 ------------
  Optimization Method        =                 BFGS
  Total Energy               =       -17.0411672816
  Real energy change         =        -0.0689406012
  Predicted change in energy =        -0.0757729708
  Scaling factor             =         0.8154302095
  Step size                  =         0.4724315332
  Trust radius               =         0.4724315332
  Decrease in energy         =                   NO
  Used time                  =               79.330

  Convergence check :
  Max. step size             =         0.4724315332
  Conv. limit for step size  =         0.0100000000
  Convergence in step size   =                   NO
  RMS step size              =         0.2230703604
  Conv. limit for RMS step   =         0.0030000000
  Convergence in RMS step    =                   NO
  Max. gradient              =         0.1475335520
  Conv. limit for gradients  =         0.0010000000
  Conv. for gradients        =                   NO
  RMS gradient               =         0.0664156623
  Conv. limit for RMS grad.  =         0.0003000000
  Conv. for gradients        =                   NO
 ---------------------------------------------------
 Estimated peak process memory after this step [MiB]                        1850

 --------------------------
 OPTIMIZATION STEP:      6
 --------------------------

 Number of electrons:                                                          8
 Number of occupied orbitals:                                                  4
 Number of molecular orbitals:                                                 4

 Number of orbital functions:                                                  6
 Number of independent orbital functions:                                      6

 Extrapolation method: ASPC


 SCF WAVEFUNCTION OPTIMIZATION

  ----------------------------------- OT ---------------------------------------
  Minimizer      : DIIS                : direct inversion
                                         in the iterative subspace
                                         using   7 DIIS vectors
                                         safer DIIS on
  Preconditioner : FULL_SINGLE_INVERSE : inversion of 
                                         H + eS - 2*(Sc)(c^T*H*c+const)(Sc)^T
  Precond_solver : DEFAULT
  stepsize       :    0.08000000                  energy_gap     :    0.08000000
  eps_taylor     :   0.10000E-15                  max_taylor     :             4
  ----------------------------------- OT ---------------------------------------

  Step     Update method      Time    Convergence         Total energy    Change
  ------------------------------------------------------------------------------
     1 OT DIIS     0.80E-01    6.9     0.18131620       -16.9235619377 -1.69E+01
     2 OT DIIS     0.80E-01    7.5     0.13176505       -16.9777906666 -5.42E-02
     3 OT DIIS     0.80E-01    7.5     0.04115536       -17.0418357918 -6.40E-02
     4 OT DIIS     0.80E-01    7.5     0.01680194       -17.0480376535 -6.20E-03
     5 OT DIIS     0.80E-01    7.7     0.00213324       -17.0488888174 -8.51E-04
     6 OT DIIS     0.80E-01    7.7     0.00073207       -17.0489012444 -1.24E-05
     7 OT DIIS     0.80E-01    7.6     0.00037774       -17.0489028137 -1.57E-06
     8 OT SD       0.80E-01    7.7     0.00021463       -17.0489032472 -4.33E-07
     9 OT DIIS     0.80E-01    7.7     0.00010343       -17.0489033121 -6.50E-08
    10 OT DIIS     0.80E-01    7.7     0.00001414       -17.0489033349 -2.28E-08

  *** SCF run converged in    10 steps ***


  Electronic density on regular grids:         -7.6100678398        0.3899321602
  Core density on regular grids:                8.0000000000       -0.0000000000
  Hard and soft densities (Lebedev):          -24.2068135000      -23.8168814093
  Total Rho_soft + Rho1_hard - Rho1_soft       -7.9999999305
  Total charge density (r-space):               0.0000000695
  Total Rho_soft + Rho0_soft (g-space):        -0.0000016415

  Overlap energy of the core charge distribution:               0.00000005328862
  Self energy of the core charge distribution:                -44.34715499673765
  Core Hamiltonian energy:                                     13.26939103688605
  Hartree energy:                                              19.72746271971778
  Exchange-correlation energy:                                 -3.07211537792716
  Hartree-Fock Exchange energy:                                -0.79350461260035

  GAPW| Exc from hard and soft atomic rho1:                    -0.31976719869486
  GAPW| local Eh = 1 center integrals:                         -1.51321495887962

  Total energy:                                               -17.04890333494719

  outer SCF iter =    1 RMS gradient =   0.14E-04 energy =        -17.0489033349
  outer SCF loop converged in   1 iterations or   10 steps

  
  Eigenvalues of the occupied subspace spin            1
 ---------------------------------------------
      -0.94709206     -0.49525070     -0.27466797     -0.24190201
 Fermi Energy [eV] :   -6.582489
  
  Lowest Eigenvalues of the unoccupied subspace spin            1
 -----------------------------------------------------
 OT| Eigensolver reached convergence in 7 iterations
       0.33746655
  
 HOMO - LUMO gap [eV] :   15.765420

 ENERGY| Total FORCE_EVAL ( QS ) energy [a.u.]:              -17.048903335437952

 --------  Informations at step =     6 ------------
  Optimization Method        =                 BFGS
  Total Energy               =       -17.0489033354
  Real energy change         =        -0.0077360539
  Predicted change in energy =        -0.0296418362
  Scaling factor             =         0.8154302095
  Step size                  =         0.3115666616
  Trust radius               =         0.4724315332
  Decrease in energy         =                  YES
  Used time                  =               86.991

  Convergence check :
  Max. step size             =         0.3115666616
  Conv. limit for step size  =         0.0100000000
  Convergence in step size   =                   NO
  RMS step size              =         0.1450430557
  Conv. limit for RMS step   =         0.0030000000
  Convergence in RMS step    =                   NO
  Max. gradient              =         0.1149350945
  Conv. limit for gradients  =         0.0010000000
  Conv. for gradients        =                   NO
  RMS gradient               =         0.0518986548
  Conv. limit for RMS grad.  =         0.0003000000
  Conv. for gradients        =                   NO
 ---------------------------------------------------
 Estimated peak process memory after this step [MiB]                        1850

 --------------------------
 OPTIMIZATION STEP:      7
 --------------------------

 Number of electrons:                                                          8
 Number of occupied orbitals:                                                  4
 Number of molecular orbitals:                                                 4

 Number of orbital functions:                                                  6
 Number of independent orbital functions:                                      6

 Extrapolation method: ASPC


 SCF WAVEFUNCTION OPTIMIZATION

  ----------------------------------- OT ---------------------------------------
  Minimizer      : DIIS                : direct inversion
                                         in the iterative subspace
                                         using   7 DIIS vectors
                                         safer DIIS on
  Preconditioner : FULL_SINGLE_INVERSE : inversion of 
                                         H + eS - 2*(Sc)(c^T*H*c+const)(Sc)^T
  Precond_solver : DEFAULT
  stepsize       :    0.08000000                  energy_gap     :    0.08000000
  eps_taylor     :   0.10000E-15                  max_taylor     :             4
  ----------------------------------- OT ---------------------------------------

  Step     Update method      Time    Convergence         Total energy    Change
  ------------------------------------------------------------------------------
     1 OT DIIS     0.80E-01    6.8     0.10153222       -17.0201478466 -1.70E+01
     2 OT DIIS     0.80E-01    7.4     0.07604938       -17.0374011175 -1.73E-02
     3 OT DIIS     0.80E-01    7.4     0.02035619       -17.0600438884 -2.26E-02
     4 OT DIIS     0.80E-01    7.5     0.00506225       -17.0614698058 -1.43E-03
     5 OT DIIS     0.80E-01    7.5     0.00209900       -17.0615389268 -6.91E-05
     6 OT DIIS     0.80E-01    7.4     0.00064085       -17.0615528540 -1.39E-05
     7 OT DIIS     0.80E-01    7.6     0.00013794       -17.0615542322 -1.38E-06
     8 OT DIIS     0.80E-01    8.0     0.00005433       -17.0615542691 -3.69E-08

  *** SCF run converged in     8 steps ***


  Electronic density on regular grids:         -7.6308190160        0.3691809840
  Core density on regular grids:                8.0000000000       -0.0000000000
  Hard and soft densities (Lebedev):          -24.9569394589      -24.5877586388
  Total Rho_soft + Rho1_hard - Rho1_soft       -7.9999998361
  Total charge density (r-space):               0.0000001639
  Total Rho_soft + Rho0_soft (g-space):        -0.0000014368

  Overlap energy of the core charge distribution:               0.00000001050911
  Self energy of the core charge distribution:                -44.34715499673765
  Core Hamiltonian energy:                                     13.19822942573164
  Hartree energy:                                              19.83184696942432
  Exchange-correlation energy:                                 -3.08233076172525
  Hartree-Fock Exchange energy:                                -0.79180387010183

  GAPW| Exc from hard and soft atomic rho1:                    -0.30248238157165
  GAPW| local Eh = 1 center integrals:                         -1.56785866461137

  Total energy:                                               -17.06155426908268

  outer SCF iter =    1 RMS gradient =   0.54E-04 energy =        -17.0615542691
  outer SCF loop converged in   1 iterations or    8 steps

  
  Eigenvalues of the occupied subspace spin            1
 ---------------------------------------------
      -0.95846356     -0.48101177     -0.30124127     -0.24983729
 Fermi Energy [eV] :   -6.798419
  
  Lowest Eigenvalues of the unoccupied subspace spin            1
 -----------------------------------------------------
 OT| Eigensolver reached convergence in 9 iterations
       0.40030293
  
 HOMO - LUMO gap [eV] :   17.691215

 ENERGY| Total FORCE_EVAL ( QS ) energy [a.u.]:              -17.061554280296324

 --------  Informations at step =     7 ------------
  Optimization Method        =                 BFGS
  Total Energy               =       -17.0615542803
  Real energy change         =        -0.0126509449
  Predicted change in energy =        -0.0128940812
  Scaling factor             =         0.8154302095
  Step size                  =         0.1540923014
  Trust radius               =         0.4724315332
  Decrease in energy         =                  YES
  Used time                  =               71.292

  Convergence check :
  Max. step size             =         0.1540923014
  Conv. limit for step size  =         0.0100000000
  Convergence in step size   =                   NO
  RMS step size              =         0.0843971984
  Conv. limit for RMS step   =         0.0030000000
  Convergence in RMS step    =                   NO
  Max. gradient              =         0.0130899459
  Conv. limit for gradients  =         0.0010000000
  Conv. for gradients        =                   NO
  RMS gradient               =         0.0065444150
  Conv. limit for RMS grad.  =         0.0003000000
  Conv. for gradients        =                   NO
 ---------------------------------------------------
 Estimated peak process memory after this step [MiB]                        1850

 --------------------------
 OPTIMIZATION STEP:      8
 --------------------------

 Number of electrons:                                                          8
 Number of occupied orbitals:                                                  4
 Number of molecular orbitals:                                                 4

 Number of orbital functions:                                                  6
 Number of independent orbital functions:                                      6

 Extrapolation method: ASPC


 SCF WAVEFUNCTION OPTIMIZATION

  ----------------------------------- OT ---------------------------------------
  Minimizer      : DIIS                : direct inversion
                                         in the iterative subspace
                                         using   7 DIIS vectors
                                         safer DIIS on
  Preconditioner : FULL_SINGLE_INVERSE : inversion of 
                                         H + eS - 2*(Sc)(c^T*H*c+const)(Sc)^T
  Precond_solver : DEFAULT
  stepsize       :    0.08000000                  energy_gap     :    0.08000000
  eps_taylor     :   0.10000E-15                  max_taylor     :             4
  ----------------------------------- OT ---------------------------------------

  Step     Update method      Time    Convergence         Total energy    Change
  ------------------------------------------------------------------------------
     1 OT DIIS     0.80E-01    6.5     0.06069518       -17.0496113442 -1.70E+01
     2 OT DIIS     0.80E-01    6.9     0.04158603       -17.0555494709 -5.94E-03
     3 OT DIIS     0.80E-01    6.9     0.01125500       -17.0611230298 -5.57E-03
     4 OT DIIS     0.80E-01    7.1     0.00359413       -17.0616191475 -4.96E-04
     5 OT DIIS     0.80E-01    7.1     0.00157293       -17.0616469020 -2.78E-05
     6 OT DIIS     0.80E-01    7.1     0.00040220       -17.0616551798 -8.28E-06
     7 OT DIIS     0.80E-01    7.1     0.00020754       -17.0616555904 -4.11E-07
     8 OT DIIS     0.80E-01    7.0     0.00005913       -17.0616557300 -1.40E-07

  *** SCF run converged in     8 steps ***


  Electronic density on regular grids:         -7.6297487860        0.3702512140
  Core density on regular grids:                8.0000000000       -0.0000000000
  Hard and soft densities (Lebedev):          -24.9129441144      -24.5426930755
  Total Rho_soft + Rho1_hard - Rho1_soft       -7.9999998249
  Total charge density (r-space):               0.0000001751
  Total Rho_soft + Rho0_soft (g-space):        -0.0000014877

  Overlap energy of the core charge distribution:               0.00000001890864
  Self energy of the core charge distribution:                -44.34715499673765
  Core Hamiltonian energy:                                     13.21247582867580
  Hartree energy:                                              19.82254406926307
  Exchange-correlation energy:                                 -3.08721279020619
  Hartree-Fock Exchange energy:                                -0.79372272846358

  GAPW| Exc from hard and soft atomic rho1:                    -0.30335028093848
  GAPW| local Eh = 1 center integrals:                         -1.56523485052336

  Total energy:                                               -17.06165573002176

  outer SCF iter =    1 RMS gradient =   0.59E-04 energy =        -17.0616557300
  outer SCF loop converged in   1 iterations or    8 steps

  
  Eigenvalues of the occupied subspace spin            1
 ---------------------------------------------
      -0.97019166     -0.48766643     -0.30735205     -0.25471092
 Fermi Energy [eV] :   -6.931037
  
  Lowest Eigenvalues of the unoccupied subspace spin            1
 -----------------------------------------------------
 OT| Eigensolver reached convergence in 9 iterations
       0.42446126
  
 HOMO - LUMO gap [eV] :   18.481215

 ENERGY| Total FORCE_EVAL ( QS ) energy [a.u.]:              -17.061655738507394

 --------  Informations at step =     8 ------------
  Optimization Method        =                 BFGS
  Total Energy               =       -17.0616557385
  Real energy change         =        -0.0001014582
  Predicted change in energy =        -0.0003894747
  Scaling factor             =         0.8154302095
  Step size                  =         0.0410688013
  Trust radius               =         0.4724315332
  Decrease in energy         =                  YES
  Used time                  =               66.803

  Convergence check :
  Max. step size             =         0.0410688013
  Conv. limit for step size  =         0.0100000000
  Convergence in step size   =                   NO
  RMS step size              =         0.0189392687
  Conv. limit for RMS step   =         0.0030000000
  Convergence in RMS step    =                   NO
  Max. gradient              =         0.0085071222
  Conv. limit for gradients  =         0.0010000000
  Conv. for gradients        =                   NO
  RMS gradient               =         0.0047763877
  Conv. limit for RMS grad.  =         0.0003000000
  Conv. for gradients        =                   NO
 ---------------------------------------------------
 Estimated peak process memory after this step [MiB]                        1850

 --------------------------
 OPTIMIZATION STEP:      9
 --------------------------

 Number of electrons:                                                          8
 Number of occupied orbitals:                                                  4
 Number of molecular orbitals:                                                 4

 Number of orbital functions:                                                  6
 Number of independent orbital functions:                                      6

 Extrapolation method: ASPC


 SCF WAVEFUNCTION OPTIMIZATION

  ----------------------------------- OT ---------------------------------------
  Minimizer      : DIIS                : direct inversion
                                         in the iterative subspace
                                         using   7 DIIS vectors
                                         safer DIIS on
  Preconditioner : FULL_SINGLE_INVERSE : inversion of 
                                         H + eS - 2*(Sc)(c^T*H*c+const)(Sc)^T
  Precond_solver : DEFAULT
  stepsize       :    0.08000000                  energy_gap     :    0.08000000
  eps_taylor     :   0.10000E-15                  max_taylor     :             4
  ----------------------------------- OT ---------------------------------------

  Step     Update method      Time    Convergence         Total energy    Change
  ------------------------------------------------------------------------------
     1 OT DIIS     0.80E-01    6.3     0.04413162       -17.0542184520 -1.71E+01
     2 OT DIIS     0.80E-01    7.0     0.03277744       -17.0574697606 -3.25E-03
     3 OT DIIS     0.80E-01    6.9     0.00902799       -17.0614985914 -4.03E-03
     4 OT DIIS     0.80E-01    7.1     0.00290423       -17.0617623556 -2.64E-04
     5 OT DIIS     0.80E-01    7.1     0.00187167       -17.0617836106 -2.13E-05
     6 OT DIIS     0.80E-01    7.0     0.00061942       -17.0617931547 -9.54E-06
     7 OT DIIS     0.80E-01    7.0     0.00015378       -17.0617942677 -1.11E-06
     8 OT SD       0.80E-01    7.0     0.00016088       -17.0617942653  2.42E-09
     9 OT DIIS     0.80E-01    6.9     0.00010594       -17.0617943063 -4.10E-08
    10 OT DIIS     0.80E-01    7.0     0.00000032       -17.0617943426 -3.63E-08

  *** SCF run converged in    10 steps ***


  Electronic density on regular grids:         -7.6302676630        0.3697323370
  Core density on regular grids:                8.0000000000       -0.0000000000
  Hard and soft densities (Lebedev):          -24.9464415556      -24.5767093893
  Total Rho_soft + Rho1_hard - Rho1_soft       -7.9999998292
  Total charge density (r-space):               0.0000001708
  Total Rho_soft + Rho0_soft (g-space):        -0.0000013933

  Overlap energy of the core charge distribution:               0.00000001421608
  Self energy of the core charge distribution:                -44.34715499673765
  Core Hamiltonian energy:                                     13.20553648036594
  Hartree energy:                                              19.82696188717677
  Exchange-correlation energy:                                 -3.08489194172724
  Hartree-Fock Exchange energy:                                -0.79281156750900

  GAPW| Exc from hard and soft atomic rho1:                    -0.30292804028268
  GAPW| local Eh = 1 center integrals:                         -1.56650617807041

  Total energy:                                               -17.06179434256820

  outer SCF iter =    1 RMS gradient =   0.32E-06 energy =        -17.0617943426
  outer SCF loop converged in   1 iterations or   10 steps

  
  Eigenvalues of the occupied subspace spin            1
 ---------------------------------------------
      -0.96458257     -0.48448924     -0.30447302     -0.25238342
 Fermi Energy [eV] :   -6.867702
  
  Lowest Eigenvalues of the unoccupied subspace spin            1
 -----------------------------------------------------
 OT| Eigensolver reached convergence in 9 iterations
       0.41319650
  
 HOMO - LUMO gap [eV] :   18.111351

 ENERGY| Total FORCE_EVAL ( QS ) energy [a.u.]:              -17.061794342568557

 --------  Informations at step =     9 ------------
  Optimization Method        =                 BFGS
  Total Energy               =       -17.0617943426
  Real energy change         =        -0.0001386041
  Predicted change in energy =        -0.0001440399
  Scaling factor             =         0.8154302095
  Step size                  =         0.0185339491
  Trust radius               =         0.4724315332
  Decrease in energy         =                  YES
  Used time                  =               80.419

  Convergence check :
  Max. step size             =         0.0185339491
  Conv. limit for step size  =         0.0100000000
  Convergence in step size   =                   NO
  RMS step size              =         0.0087447528
  Conv. limit for RMS step   =         0.0030000000
  Convergence in RMS step    =                   NO
  Max. gradient              =         0.0003908696
  Conv. limit for gradients  =         0.0010000000
  Conv. in gradients         =                  YES
  RMS gradient               =         0.0002034460
  Conv. limit for RMS grad.  =         0.0003000000
  Conv. in RMS gradients     =                  YES
 ---------------------------------------------------
 Estimated peak process memory after this step [MiB]                        1850

 --------------------------
 OPTIMIZATION STEP:     10
 --------------------------

 Number of electrons:                                                          8
 Number of occupied orbitals:                                                  4
 Number of molecular orbitals:                                                 4

 Number of orbital functions:                                                  6
 Number of independent orbital functions:                                      6

 Extrapolation method: ASPC


 SCF WAVEFUNCTION OPTIMIZATION

  ----------------------------------- OT ---------------------------------------
  Minimizer      : DIIS                : direct inversion
                                         in the iterative subspace
                                         using   7 DIIS vectors
                                         safer DIIS on
  Preconditioner : FULL_SINGLE_INVERSE : inversion of 
                                         H + eS - 2*(Sc)(c^T*H*c+const)(Sc)^T
  Precond_solver : DEFAULT
  stepsize       :    0.08000000                  energy_gap     :    0.08000000
  eps_taylor     :   0.10000E-15                  max_taylor     :             4
  ----------------------------------- OT ---------------------------------------

  Step     Update method      Time    Convergence         Total energy    Change
  ------------------------------------------------------------------------------
     1 OT DIIS     0.80E-01    6.3     0.01555774       -17.0609058119 -1.71E+01
     2 OT DIIS     0.80E-01    6.9     0.01115877       -17.0613031263 -3.97E-04
     3 OT DIIS     0.80E-01    7.0     0.00354986       -17.0617426705 -4.40E-04
     4 OT DIIS     0.80E-01    6.9     0.00098738       -17.0617915239 -4.89E-05
     5 OT DIIS     0.80E-01    6.9     0.00025680       -17.0617942980 -2.77E-06
     6 OT DIIS     0.80E-01    6.8     0.00016030       -17.0617944370 -1.39E-07
     7 OT DIIS     0.80E-01    6.9     0.00013826       -17.0617944595 -2.25E-08
     8 OT DIIS     0.80E-01    6.9     0.00013087       -17.0617944669 -7.43E-09
     9 OT DIIS     0.80E-01    7.1     0.00000857       -17.0617945246 -5.77E-08

  *** SCF run converged in     9 steps ***


  Electronic density on regular grids:         -7.6302248367        0.3697751633
  Core density on regular grids:                8.0000000000       -0.0000000000
  Hard and soft densities (Lebedev):          -24.9454101587      -24.5756351671
  Total Rho_soft + Rho1_hard - Rho1_soft       -7.9999998283
  Total charge density (r-space):               0.0000001717
  Total Rho_soft + Rho0_soft (g-space):        -0.0000014051

  Overlap energy of the core charge distribution:               0.00000001434490
  Self energy of the core charge distribution:                -44.34715499673765
  Core Hamiltonian energy:                                     13.20583010797586
  Hartree energy:                                              19.82668167098218
  Exchange-correlation energy:                                 -3.08495066785112
  Hartree-Fock Exchange energy:                                -0.79284242901679

  GAPW| Exc from hard and soft atomic rho1:                    -0.30296318188329
  GAPW| local Eh = 1 center integrals:                         -1.56639504237665

  Total energy:                                               -17.06179452456257

  outer SCF iter =    1 RMS gradient =   0.86E-05 energy =        -17.0617945246
  outer SCF loop converged in   1 iterations or    9 steps

  
  Eigenvalues of the occupied subspace spin            1
 ---------------------------------------------
      -0.96473725     -0.48460695     -0.30452861     -0.25244277
 Fermi Energy [eV] :   -6.869317
  
  Lowest Eigenvalues of the unoccupied subspace spin            1
 -----------------------------------------------------
 OT| Eigensolver reached convergence in 9 iterations
       0.41351339
  
 HOMO - LUMO gap [eV] :   18.121589

 ENERGY| Total FORCE_EVAL ( QS ) energy [a.u.]:              -17.061794524791555

 --------  Informations at step =    10 ------------
  Optimization Method        =                 BFGS
  Total Energy               =       -17.0617945248
  Real energy change         =        -0.0000001822
  Predicted change in energy =        -0.0000001868
  Scaling factor             =         0.8154302095
  Step size                  =         0.0005026949
  Trust radius               =         0.4724315332
  Decrease in energy         =                  YES
  Used time                  =               72.731

  Convergence check :
  Max. step size             =         0.0005026949
  Conv. limit for step size  =         0.0100000000
  Convergence in step size   =                  YES
  RMS step size              =         0.0002726618
  Conv. limit for RMS step   =         0.0030000000
  Convergence in RMS step    =                  YES
  Max. gradient              =         0.0000218936
  Conv. limit for gradients  =         0.0010000000
  Conv. in gradients         =                  YES
  RMS gradient               =         0.0000122900
  Conv. limit for RMS grad.  =         0.0003000000
  Conv. in RMS gradients     =                  YES
 ---------------------------------------------------
 Estimated peak process memory after this step [MiB]                        1850

 *******************************************************************************
 ***                    GEOMETRY OPTIMIZATION COMPLETED                      ***
 *******************************************************************************

                    Reevaluating energy at the minimum

 Number of electrons:                                                          8
 Number of occupied orbitals:                                                  4
 Number of molecular orbitals:                                                 4

 Number of orbital functions:                                                  6
 Number of independent orbital functions:                                      6

 Extrapolation method: ASPC


 SCF WAVEFUNCTION OPTIMIZATION

  ----------------------------------- OT ---------------------------------------
  Minimizer      : DIIS                : direct inversion
                                         in the iterative subspace
                                         using   7 DIIS vectors
                                         safer DIIS on
  Preconditioner : FULL_SINGLE_INVERSE : inversion of 
                                         H + eS - 2*(Sc)(c^T*H*c+const)(Sc)^T
  Precond_solver : DEFAULT
  stepsize       :    0.08000000                  energy_gap     :    0.08000000
  eps_taylor     :   0.10000E-15                  max_taylor     :             4
  ----------------------------------- OT ---------------------------------------

  Step     Update method      Time    Convergence         Total energy    Change
  ------------------------------------------------------------------------------
     1 OT DIIS     0.80E-01    6.3     0.00293996       -17.0617672983 -1.71E+01
     2 OT DIIS     0.80E-01    6.9     0.00195996       -17.0617810328 -1.37E-05
     3 OT DIIS     0.80E-01    7.0     0.00068256       -17.0617926146 -1.16E-05
     4 OT DIIS     0.80E-01    7.0     0.00022243       -17.0617943355 -1.72E-06
     5 OT DIIS     0.80E-01    7.0     0.00001415       -17.0617945243 -1.89E-07

  *** SCF run converged in     5 steps ***


  Electronic density on regular grids:         -7.6302372039        0.3697627961
  Core density on regular grids:                8.0000000000       -0.0000000000
  Hard and soft densities (Lebedev):          -24.9456538880      -24.5758912636
  Total Rho_soft + Rho1_hard - Rho1_soft       -7.9999998283
  Total charge density (r-space):               0.0000001717
  Total Rho_soft + Rho0_soft (g-space):        -0.0000014051

  Overlap energy of the core charge distribution:               0.00000001434490
  Self energy of the core charge distribution:                -44.34715499673765
  Core Hamiltonian energy:                                     13.20578551146997
  Hartree energy:                                              19.82675488155034
  Exchange-correlation energy:                                 -3.08495574042058
  Hartree-Fock Exchange energy:                                -0.79284109256065

  GAPW| Exc from hard and soft atomic rho1:                    -0.30295317039770
  GAPW| local Eh = 1 center integrals:                         -1.56642993155363

  Total energy:                                               -17.06179452430501

  outer SCF iter =    1 RMS gradient =   0.14E-04 energy =        -17.0617945243
  outer SCF loop converged in   1 iterations or    5 steps

  
  Eigenvalues of the occupied subspace spin            1
 ---------------------------------------------
      -0.96474274     -0.48461001     -0.30453698     -0.25245102
 Fermi Energy [eV] :   -6.869542
  
  Lowest Eigenvalues of the unoccupied subspace spin            1
 -----------------------------------------------------
 OT| Eigensolver reached convergence in 9 iterations
       0.41351243
  
 HOMO - LUMO gap [eV] :   18.121787

 ENERGY| Total FORCE_EVAL ( QS ) energy [a.u.]:              -17.061794524305014

 -------------------------------------------------------------------------------
 -                                                                             -
 -                                DBCSR STATISTICS                             -
 -                                                                             -
 -------------------------------------------------------------------------------
 COUNTER                                    TOTAL       BLAS       SMM       ACC
 flops     4 x     1 x     6                  576     100.0%      0.0%      0.0%
 flops     6 x     1 x     4                  576     100.0%      0.0%      0.0%
 flops     1 x     1 x     6                 2304     100.0%      0.0%      0.0%
 flops     5 x     1 x     5                 2850     100.0%      0.0%      0.0%
 flops     1 x     1 x     1                 2942     100.0%      0.0%      0.0%
 flops     5 x     1 x     6                 3420     100.0%      0.0%      0.0%
 flops     6 x     1 x     5                 3420     100.0%      0.0%      0.0%
 flops     5 x     5 x     6                 3600     100.0%      0.0%      0.0%
 flops     4 x     1 x     1                 3648     100.0%      0.0%      0.0%
 flops     6 x     1 x     1                 3816     100.0%      0.0%      0.0%
 flops     6 x     1 x     6                 4104     100.0%      0.0%      0.0%
 flops     6 x     5 x     6                 4320     100.0%      0.0%      0.0%
 flops     1 x     1 x     4                 7248     100.0%      0.0%      0.0%
 flops     1 x     4 x     1                11168     100.0%      0.0%      0.0%
 flops     4 x     1 x     4                12480     100.0%      0.0%      0.0%
 flops     4 x     4 x     1                22336     100.0%      0.0%      0.0%
 flops     1 x     4 x     4                27904     100.0%      0.0%      0.0%
 flops     6 x     4 x     6                36576     100.0%      0.0%      0.0%
 flops     4 x     4 x     6                90624     100.0%      0.0%      0.0%
 flops     6 x     4 x     4               108096     100.0%      0.0%      0.0%
 flops     4 x     4 x     4               188928     100.0%      0.0%      0.0%
 flops inhomo. stacks                           0       0.0%      0.0%      0.0%
 flops total                       540.936000E+03     100.0%      0.0%      0.0%
 flops max/rank                    540.936000E+03     100.0%      0.0%      0.0%
 matmuls inhomo. stacks                         0       0.0%      0.0%      0.0%
 matmuls total                               9613     100.0%      0.0%      0.0%
 number of processed stacks                  6416     100.0%      0.0%      0.0%
 average stack size                                     1.5       0.0       0.0
 marketing flops                   554.328000E+03
 -------------------------------------------------------------------------------
 # multiplications                           4259
 max memory usage/rank               1.882677E+09
 # max total images/rank                        1
 # max 3D layers                                1
 # MPI messages exchanged                       0
 -------------------------------------------------------------------------------

 -------------------------------------------------------------------------------
 -                                                                             -
 -                                DBM STATISTICS                               -
 -                                                                             -
 -------------------------------------------------------------------------------
    M  x    N  x    K                                          COUNT     PERCENT
 -------------------------------------------------------------------------------

 -------------------------------------------------------------------------------
 -                                                                             -
 -                                GRID STATISTICS                              -
 -                                                                             -
 -------------------------------------------------------------------------------
 LP    KERNEL             BACKEND                              COUNT     PERCENT
 0     collocate ortho    REF                                  13881      27.90%
 0     integrate ortho    REF                                  12260      24.64%
 1     integrate ortho    REF                                   8077      16.24%
 1     collocate ortho    REF                                   7788      15.66%
 2     integrate ortho    REF                                   3535       7.11%
 2     collocate ortho    REF                                   3175       6.38%
 3     integrate ortho    REF                                    275       0.55%
 0     collocate general  REF                                    252       0.51%
 0     integrate general  REF                                    230       0.46%
 2     collocate general  REF                                    126       0.25%
 2     integrate general  REF                                    115       0.23%
 1     integrate general  REF                                     22       0.04%
 3     integrate general  REF                                     11       0.02%
 -------------------------------------------------------------------------------

 MEMORY| Estimated peak process memory [MiB]                                1850

 -------------------------------------------------------------------------------
 ----                             MULTIGRID INFO                            ----
 -------------------------------------------------------------------------------
 count for grid        1:           1609          cutoff [a.u.]          200.00
 count for grid        2:           1151          cutoff [a.u.]           66.67
 count for grid        3:           1016          cutoff [a.u.]           22.22
 count for grid        4:            884          cutoff [a.u.]            7.41
 total gridlevel count  :           4660

 -------------------------------------------------------------------------------
 -                                                                             -
 -                           R E F E R E N C E S                               -
 -                                                                             -
 -------------------------------------------------------------------------------
 
 CP2K version 2023.1 (Development Version), the CP2K developers group (2023).
 CP2K is freely available from https://www.cp2k.org/ .

 Kuehne,Thomas D.; Iannuzzi,Marcella; Del Ben,Mauro;
 Rybkin,Vladimir V.; Seewald,Patrick; Stein,Frederick; Laino,Teodoro;
 Khaliullin,Rustam Z.; Schuett,Ole; Schiffmann,Florian; Golze,Dorothea;
 Wilhelm,Jan; Chulkov,Sergey; Bani-Hashemian,Mohammad Hossein;
 Weber,Valery; Borstnik,Urban; Taillefumier,Mathieu;
 Jakobovits,Alice Shoshana; Lazzaro,Alfio; Pabst,Hans; Mueller,Tiziano;
 Schade,Robert; Guidon,Manuel; Andermatt,Samuel; Holmberg,Nico;
 Schenter,Gregory K.; Hehn,Anna; Bussy,Augustin; Belleflamme,Fabian;
 Tabacchi,Gloria; Gloess,Andreas; Lass,Michael; Bethune,Iain;
 Mundy,Christopher J.; Plessl,Christian; Watkins,Matt;
 VandeVondele,Joost; Krack,Matthias; Hutter,Juerg. 
 The Journal of Chemical Physics, 152 (19), (2020). 
 CP2K: An electronic structure and molecular dynamics software package -
 Quickstep: Efficient and accurate electronic structure calculations.
 https://doi.org/10.1063/5.0007045

 Schuett, Ole; Messmer, Peter; Hutter, Juerg; VandeVondele, Joost. 
 Electronic Structure Calculations on Graphics Processing Units, John
 Wiley & Sons, Ltd, 173-190 (2016). 
 GPU-Accelerated Sparse Matrix-Matrix Multiplication for
 Linear Scaling Density Functional Theory.
 https://doi.org/10.1002/9781118670712.ch8

 Borstnik, U; VandeVondele, J; Weber, V; Hutter, J. 
 PARALLEL COMPUTING, 40 (5-6), 47-58 (2014). 
 Sparse matrix multiplication: The distributed block-compressed sparse
 row library.
 https://doi.org/10.1016/j.parco.2014.03.012

 Hutter, J; Iannuzzi, M; Schiffmann, F; VandeVondele, J. 
 WIREs Comput Mol Sci., 4 (1), 15-25 (2014). 
 CP2K: atomistic simulations of condensed matter systems.
 https://doi.org/10.1002/wcms.1159

 Guidon, M; Hutter, J; VandeVondele, J. 
 JOURNAL OF CHEMICAL THEORY AND COMPUTATION, 5 (11), 3010-3021 (2009). 
 Robust Periodic Hartree-Fock Exchange for Large-Scale Simulations Using
 Gaussian Basis Sets.
 https://doi.org/10.1021/ct900494g

 Guidon, M; Schiffmann, F; Hutter, J; VandeVondele, J. 
 JOURNAL OF CHEMICAL PHYSICS, 128 (21), 214104 (2008). 
 Ab initio molecular dynamics using hybrid density functionals.
 https://doi.org/10.1063/1.2931945

 VandeVondele, J; Hutter, J. 
 JOURNAL OF CHEMICAL PHYSICS, 127 (11), 114105 (2007). 
 Gaussian basis sets for accurate calculations on molecular systems in
 gas and condensed phases.
 https://doi.org/10.1063/1.2770708

 Genovese, L; Deutsch, T; Goedecker, S. 
 JOURNAL OF CHEMICAL PHYSICS, 127 (5), 054704 (2007). 
 Efficient and accurate three-dimensional Poisson solver for surface
 problems.
 https://doi.org/10.1063/1.2754685

 Kuhne, TD; Krack, M; Mohamed, FR; Parrinello, M. 
 PHYSICAL REVIEW LETTERS, 98 (6), 066401 (2007). 
 Efficient and accurate Car-Parrinello-like approach to
 Born-Oppenheimer molecular dynamics.
 https://doi.org/10.1103/PhysRevLett.98.066401

 Genovese, L; Deutsch, T; Neelov, A; Goedecker, S; Beylkin, G. 
 JOURNAL OF CHEMICAL PHYSICS, 125 (7), 074105 (2006). 
 Efficient solution of Poisson's equation with free boundary conditions.
 https://doi.org/10.1063/1.2335442

 Krack, M. 
 THEORETICAL CHEMISTRY ACCOUNTS, 114 (1-3), 145-152 (2005). 
 Pseudopotentials for H to Kr optimized for gradient-corrected
 exchange-correlation functionals.
 https://doi.org/10.1007/s00214-005-0655-y

 Frigo, M; Johnson, SG. 
 PROCEEDINGS OF THE IEEE, 93 (2), 216-231 (2005). 
 The design and implementation of FFTW3.
 https://doi.org/10.1109/JPROC.2004.840301

 Kolafa, J. 
 JOURNAL OF COMPUTATIONAL CHEMISTRY, 25 (3), 335-342 (2004). 
 Time-reversible always stable predictor-corrector method for
 molecular dynamics of polarizable molecules.
 https://doi.org/10.1002/jcc.10385

 VandeVondele, J; Hutter, J. 
 JOURNAL OF CHEMICAL PHYSICS, 118 (10), 4365-4369 (2003). 
 An efficient orbital transformation method for electronic structure
 calculations.
 https://doi.org/10.1063/1.1543154

 Lippert, G; Hutter, J; Parrinello, M. 
 THEORETICAL CHEMISTRY ACCOUNTS, 103 (2), 124-140 (1999). 
 The Gaussian and augmented-plane-wave density functional method for ab
 initio molecular dynamics simulations.
 https://doi.org/10.1007/s002140050523

 Krack, M; Parrinello, M. 
 PHYSICAL CHEMISTRY CHEMICAL PHYSICS, 2 (10), 2105-2112 (2000). 
 All-electron ab-initio molecular dynamics.
 https://doi.org/10.1039/b001167n

 Hartwigsen, C; Goedecker, S; Hutter, J. 
 PHYSICAL REVIEW B, 58 (7), 3641-3662 (1998). 
 Relativistic separable dual-space Gaussian pseudopotentials from H to Rn.
 https://doi.org/10.1103/PhysRevB.58.3641

 Goedecker, S; Teter, M; Hutter, J. 
 PHYSICAL REVIEW B, 54 (3), 1703-1710 (1996). 
 Separable dual-space Gaussian pseudopotentials.
 https://doi.org/10.1103/PhysRevB.54.1703

 BECKE, AD. PHYSICAL REVIEW A, 38 (6), 3098-3100 (1988). 
 DENSITY-FUNCTIONAL EXCHANGE-ENERGY APPROXIMATION WITH CORRECT
 ASYMPTOTIC-BEHAVIOR.
 https://doi.org/10.1103/PhysRevA.38.3098

 LEE, CT; YANG, WT; PARR, RG. 
 PHYSICAL REVIEW B, 37 (2), 785-789 (1988). 
 DEVELOPMENT OF THE COLLE-SALVETTI CORRELATION-ENERGY FORMULA INTO A
 FUNCTIONAL OF THE ELECTRON-DENSITY.
 https://doi.org/10.1103/PhysRevB.37.785


 -------------------------------------------------------------------------------
 -                                                                             -
 -                                T I M I N G                                  -
 -                                                                             -
 -------------------------------------------------------------------------------
 SUBROUTINE                       CALLS  ASD         SELF TIME        TOTAL TIME
                                MAXIMUM       AVERAGE  MAXIMUM  AVERAGE  MAXIMUM
 CP2K                                 1  1.0    0.092    0.092 1002.743 1002.743
 cp_geo_opt                           1  2.0    0.002    0.002  999.769  999.769
 geoopt_bfgs                          1  3.0    0.016    0.016  999.767  999.767
 cp_eval_at                          12  4.0    0.014    0.014  999.671  999.671
 qs_forces                           11  5.0    0.013    0.013  960.849  960.849
 qs_energies                         12  5.9    0.010    0.010  922.093  922.093
 scf_env_do_scf                      12  6.9    0.003    0.003  877.590  877.590
 rebuild_ks_matrix                  126  9.7    0.000    0.000  865.748  865.748
 qs_ks_build_kohn_sham_matrix       126 10.7    0.021    0.021  865.747  865.747
 scf_env_do_scf_inner_loop          115  8.0    0.008    0.008  792.397  792.397
 qs_ks_update_qs_env                127  9.0    0.001    0.001  788.223  788.223
 pw_transfer                       2771 13.7    0.193    0.193  592.316  592.316
 fft_wrap_pw1pw2                   2645 14.7    0.026    0.026  591.045  591.045
 fft_wrap_pw1pw2_200               1814 16.1   54.076   54.076  576.636  576.636
 qs_vxc_create                      126 11.7    0.002    0.002  402.575  402.575
 xc_vxc_pw_create                   126 12.7    6.448    6.448  402.573  402.573
 pw_poisson_solve                   126 11.7   87.471   87.471  303.564  303.564
 fft3d_s                           2646 16.7  301.443  301.443  301.469  301.469
 xc_pw_derive                       756 14.7    0.010    0.010  268.727  268.727
 xc_rho_set_and_dset_create         126 13.7   44.426   44.426  208.793  208.793
 xc_pw_divergence                   126 13.7    0.005    0.005  184.482  184.482
 pw_gather_s                       1360 16.4  125.019  125.019  125.019  125.019
 pw_scatter_s                      1285 17.2  109.770  109.770  109.770  109.770
 ps_wavelet_solve                   126 12.7  105.552  105.552  108.615  108.615
 qs_rho_update_rho_low              127  9.0    0.002    0.002   97.875   97.875
 calculate_rho_elec                 127 10.0    3.215    3.215   97.862   97.862
 density_rs2pw                      127 11.0    0.008    0.008   92.264   92.264
 init_scf_loop                       12  7.9    0.003    0.003   85.188   85.188
 qs_ks_update_qs_env_forces          11  6.0    0.000    0.000   77.527   77.527
 sum_up_and_integrate               126 11.7    4.065    4.065   56.705   56.705
 integrate_v_rspace                 126 12.7    0.004    0.004   52.640   52.640
 potential_pw2rs                    126 13.7    0.117    0.117   52.225   52.225
 prepare_gapw_den                   126 11.7    0.002    0.002   51.074   51.074
 put_rho0_on_grid                   126 12.7    3.206    3.206   50.968   50.968
 scf_post_calculation_gpw            12  6.9    0.002    0.002   34.661   34.661
 xc_functional_eval                2646 13.8    0.009    0.009   33.016   33.016
 pw_derive                          756 15.7   22.786   22.786   22.786   22.786
 -------------------------------------------------------------------------------

 The number of warnings for this run is : 1
 
 -------------------------------------------------------------------------------
  **** **** ******  **  PROGRAM ENDED AT                 2023-04-05 10:48:25.555
 ***** ** ***  *** **   PROGRAM RAN ON                               eu-g5-002-3
 **    ****   ******    PROGRAM RAN BY                                 jbachmann
 ***** **    ** ** **   PROGRAM PROCESS ID                                 24961
  **** **  *******  **  PROGRAM STOPPED IN /cluster/home/jbachmann/Molecular-and
                                           -Materials-Modelling-FS2023/exercise7
                                           /B3LYP/SZV
