 DBCSR| CPU Multiplication driver                                           BLAS (U)
 DBCSR| Multrec recursion limit                                              512 (U)
 DBCSR| Multiplication stack size                                           1000 (D)
 DBCSR| Maximum elements for images                                    UNLIMITED (U)
 DBCSR| Multiplicative factor virtual images                                   1 (U)
 DBCSR| Use multiplication densification                                       T (D)
 DBCSR| Multiplication size stacks                                             3 (U)
 DBCSR| Use memory pool for CPU allocation                                     F (U)
 DBCSR| OMP: Current number of threads                                         1
 DBCSR| OMP: Max number of threads                                             1
 DBCSR| Split modifier for TAS multiplication algorithm                  1.0E+00 (U)


  **** **** ******  **  PROGRAM STARTED AT               2023-04-05 10:30:18.254
 ***** ** ***  *** **   PROGRAM STARTED ON                           eu-g5-002-3
 **    ****   ******    PROGRAM STARTED BY                             jbachmann
 ***** **    ** ** **   PROGRAM PROCESS ID                                 24557
  **** **  *******  **  PROGRAM STARTED IN /cluster/home/jbachmann/Molecular-and
                                           -Materials-Modelling-FS2023/exercise7
                                           /B3LYP/SZV

 CP2K| version string:                 CP2K version 2023.1 (Development Version)
 CP2K| source code revision number:                                  git:dc34ec9
 CP2K| cp2kflags: omp libint fftw3 libxc max_contr=4 spglib libvori libbqb      
 CP2K| is freely available from                            https://www.cp2k.org/
 CP2K| Program compiled at                         Mon Mar 27 23:22:21 CEST 2023
 CP2K| Program compiled on                                           eu-g5-025-4
 CP2K| Program compiled for                              Linux-gnu-x86_64-static
 CP2K| Data directory path      /cluster/apps/nss/gcc-6.3.0/cp2k/8.2/x86_64/data
 CP2K| Input file name                                                    ts.inp

 GLOBAL| Force Environment number                                              1
 GLOBAL| Basis set file name                                        BASIS_MOLOPT
 GLOBAL| Potential file name                                      GTH_POTENTIALS
 GLOBAL| MM Potential file name                                     MM_POTENTIAL
 GLOBAL| Coordinate file name                                             ts.xyz
 GLOBAL| Method name                                                        CP2K
 GLOBAL| Project name                                                         ts
 GLOBAL| Run type                                                         ENERGY
 GLOBAL| FFT library                                                       FFTW3
 GLOBAL| Diagonalization library                                       ScaLAPACK
 GLOBAL| DGEMM library                                                      BLAS
 GLOBAL| Orthonormality check for eigenvectors                          DISABLED
 GLOBAL| Matrix multiplication library                                 ScaLAPACK
 GLOBAL| All-to-all communication in single precision                          F
 GLOBAL| FFTs using library dependent lengths                                  F
 GLOBAL| Grid backend                                                       AUTO
 GLOBAL| Global print level                                                  LOW
 GLOBAL| MPI I/O enabled                                                       T
 GLOBAL| Total number of message passing processes                             1
 GLOBAL| Number of threads for this process                                    1
 GLOBAL| This output is from process                                           0
 GLOBAL| Stack size for threads created by OpenMP (OMP_STACKSIZE)        default
 GLOBAL| CPU model name                          AMD EPYC 7742 64-Core Processor

 MEMORY| system memory details [Kb]
 MEMORY|                        rank 0           min           max       average
 MEMORY| MemTotal            525874016     525874016     525874016     525874016
 MEMORY| MemFree             409664084     409664084     409664084     409664084
 MEMORY| Buffers                     0             0             0             0
 MEMORY| Cached               80566288      80566288      80566288      80566288
 MEMORY| Slab                  4014348       4014348       4014348       4014348
 MEMORY| SReclaimable          2551588       2551588       2551588       2551588
 MEMORY| MemLikelyFree       492781960     492781960     492781960     492781960


 GENERATE|  Preliminary Number of Bonds generated:                             0
 GENERATE|  Achieved consistency in connectivity generation.

 *******************************************************************************
 *******************************************************************************
 **                                                                           **
 **     #####                         ##              ##                      **
 **    ##   ##            ##          ##              ##                      **
 **   ##     ##                       ##            ######                    **
 **   ##     ##  ##   ##  ##   #####  ##  ##   ####   ##    #####    #####    **
 **   ##     ##  ##   ##  ##  ##      ## ##   ##      ##   ##   ##  ##   ##   **
 **   ##  ## ##  ##   ##  ##  ##      ####     ###    ##   ######   ######    **
 **    ##  ###   ##   ##  ##  ##      ## ##      ##   ##   ##       ##        **
 **     #######   #####   ##   #####  ##  ##  ####    ##    #####   ##        **
 **           ##                                                    ##        **
 **                                                                           **
 **                                                ... make the atoms dance   **
 **                                                                           **
 **            Copyright (C) by CP2K developers group (2000-2023)             **
 **                      J. Chem. Phys. 152, 194103 (2020)                    **
 **                                                                           **
 *******************************************************************************


 TOTAL NUMBERS AND MAXIMUM NUMBERS

  Total number of            - Atomic kinds:                                   3
                             - Atoms:                                          9
                             - Shell sets:                                     9
                             - Shells:                                        12
                             - Primitive Cartesian functions:                 63
                             - Cartesian basis functions:                     18
                             - Spherical basis functions:                     18

  Maximum angular momentum of- Orbital basis functions:                        1
                             - Local part of the GTH pseudopotential:          2
                             - Non-local part of the GTH pseudopotential:      0


 SCF PARAMETERS         Density guess:                                   RESTART
                        --------------------------------------------------------
                        max_scf:                                              50
                        max_scf_history:                                       0
                        max_diis:                                              4
                        --------------------------------------------------------
                        eps_scf:                                        1.00E-04
                        eps_scf_history:                                0.00E+00
                        eps_diis:                                       1.00E-01
                        eps_eigval:                                     1.00E-05
                        --------------------------------------------------------
                        level_shift [a.u.]:                             0.000000
                        --------------------------------------------------------
                        Outer loop SCF in use 
                        No variables optimised in outer loop
                        eps_scf                                         1.00E-04
                        max_scf                                              500
                        No outer loop optimization
                        step_size                                       5.00E-01

 PW_GRID| Information for grid number                                          1
 PW_GRID| Cutoff [a.u.]                                                    200.0
 PW_GRID| spherical cutoff:                                                   NO
 PW_GRID|   Bounds   1            -96      95                Points:         192
 PW_GRID|   Bounds   2            -96      95                Points:         192
 PW_GRID|   Bounds   3            -96      95                Points:         192
 PW_GRID| Volume element (a.u.^3)  0.3218E-02     Volume (a.u.^3)     22775.6292
 PW_GRID| Grid span                                                    FULLSPACE

 PW_GRID| Information for grid number                                          2
 PW_GRID| Number of the reference grid                                         1
 PW_GRID| Cutoff [a.u.]                                                     66.7
 PW_GRID| spherical cutoff:                                                   NO
 PW_GRID|   Bounds   1            -54      53                Points:         108
 PW_GRID|   Bounds   2            -54      53                Points:         108
 PW_GRID|   Bounds   3            -54      53                Points:         108
 PW_GRID| Volume element (a.u.^3)  0.1808E-01     Volume (a.u.^3)     22775.6292
 PW_GRID| Grid span                                                    FULLSPACE

 PW_GRID| Information for grid number                                          3
 PW_GRID| Number of the reference grid                                         1
 PW_GRID| Cutoff [a.u.]                                                     22.2
 PW_GRID| spherical cutoff:                                                   NO
 PW_GRID|   Bounds   1            -32      31                Points:          64
 PW_GRID|   Bounds   2            -32      31                Points:          64
 PW_GRID|   Bounds   3            -32      31                Points:          64
 PW_GRID| Volume element (a.u.^3)  0.8688E-01     Volume (a.u.^3)     22775.6292
 PW_GRID| Grid span                                                    FULLSPACE

 PW_GRID| Information for grid number                                          4
 PW_GRID| Number of the reference grid                                         1
 PW_GRID| Cutoff [a.u.]                                                      7.4
 PW_GRID| spherical cutoff:                                                   NO
 PW_GRID|   Bounds   1            -18      17                Points:          36
 PW_GRID|   Bounds   2            -18      17                Points:          36
 PW_GRID|   Bounds   3            -18      17                Points:          36
 PW_GRID| Volume element (a.u.^3)  0.4882         Volume (a.u.^3)     22775.6292
 PW_GRID| Grid span                                                    FULLSPACE

 POISSON| Solver                                                         WAVELET
 POISSON| Wavelet| Scaling function                                           40
 POISSON| Periodicity                                                       NONE

 RS_GRID| Information for grid number                                          1
 RS_GRID|   Bounds   1            -96      95                Points:         192
 RS_GRID|   Bounds   2            -96      95                Points:         192
 RS_GRID|   Bounds   3            -96      95                Points:         192

 RS_GRID| Information for grid number                                          2
 RS_GRID|   Bounds   1            -54      53                Points:         108
 RS_GRID|   Bounds   2            -54      53                Points:         108
 RS_GRID|   Bounds   3            -54      53                Points:         108

 RS_GRID| Information for grid number                                          3
 RS_GRID|   Bounds   1            -32      31                Points:          64
 RS_GRID|   Bounds   2            -32      31                Points:          64
 RS_GRID|   Bounds   3            -32      31                Points:          64

 RS_GRID| Information for grid number                                          4
 RS_GRID|   Bounds   1            -18      17                Points:          36
 RS_GRID|   Bounds   2            -18      17                Points:          36
 RS_GRID|   Bounds   3            -18      17                Points:          36

 Number of electrons:                                                         20
 Number of occupied orbitals:                                                 10
 Number of molecular orbitals:                                                10

 Number of orbital functions:                                                 18
 Number of independent orbital functions:                                     18

 Extrapolation method: initial_guess

 *** WARNING in qs_initial_guess.F:305 :: User requested to restart the   ***
 *** wavefunction from the file named: ts-RESTART.wfn. This file does not ***
 *** exist. Please check the existence of the file or change properly the ***
 *** value of the keyword WFN_RESTART_FILE_NAME. Calculation continues    ***
 *** using ATOMIC GUESS.                                                  ***



 SCF WAVEFUNCTION OPTIMIZATION

  ----------------------------------- OT ---------------------------------------
  Minimizer      : DIIS                : direct inversion
                                         in the iterative subspace
                                         using   7 DIIS vectors
                                         safer DIIS on
  Preconditioner : FULL_SINGLE_INVERSE : inversion of 
                                         H + eS - 2*(Sc)(c^T*H*c+const)(Sc)^T
  Precond_solver : DEFAULT
  stepsize       :    0.08000000                  energy_gap     :    0.08000000
  eps_taylor     :   0.10000E-15                  max_taylor     :             4
  ----------------------------------- OT ---------------------------------------

  Step     Update method      Time    Convergence         Total energy    Change
  ------------------------------------------------------------------------------
     1 OT DIIS     0.80E-01   11.7     0.30316770       -28.1912423316 -2.82E+01
     2 OT DIIS     0.80E-01    7.8     0.30919209       -29.2428110883 -1.05E+00
     3 OT DIIS     0.80E-01    7.8     0.23822873       -29.8503884961 -6.08E-01
     4 OT DIIS     0.80E-01    7.6     0.14315967       -30.2360002765 -3.86E-01
     5 OT DIIS     0.80E-01    7.9     0.06315681       -30.3604630363 -1.24E-01
     6 OT DIIS     0.80E-01    8.1     0.03747447       -30.4335684155 -7.31E-02
     7 OT DIIS     0.80E-01    7.9     0.02016148       -30.4476612201 -1.41E-02
     8 OT DIIS     0.80E-01    8.1     0.01026377       -30.4537044023 -6.04E-03
     9 OT DIIS     0.80E-01    7.7     0.01025444       -30.4549908224 -1.29E-03
    10 OT DIIS     0.80E-01    7.7     0.00444636       -30.4559912756 -1.00E-03
    11 OT DIIS     0.80E-01    8.2     0.00170830       -30.4562019689 -2.11E-04
    12 OT DIIS     0.80E-01    8.1     0.00093438       -30.4562826215 -8.07E-05
    13 OT DIIS     0.80E-01    8.4     0.00057022       -30.4563084277 -2.58E-05
    14 OT DIIS     0.80E-01    8.5     0.00030976       -30.4563205536 -1.21E-05
    15 OT DIIS     0.80E-01    8.4     0.00018733       -30.4563238093 -3.26E-06
    16 OT DIIS     0.80E-01    8.4     0.00010029       -30.4563250941 -1.28E-06
    17 OT DIIS     0.80E-01    8.4     0.00006328       -30.4563253756 -2.81E-07

  *** SCF run converged in    17 steps ***


  Electronic density on regular grids:        -19.5309612906        0.4690387094
  Core density on regular grids:               20.0000000000       -0.0000000000
  Hard and soft densities (Lebedev):          -94.5634840747      -94.0944454230
  Total Rho_soft + Rho1_hard - Rho1_soft      -19.9999999423
  Total charge density (r-space):               0.0000000577
  Total Rho_soft + Rho0_soft (g-space):        -0.0000048505

  Overlap energy of the core charge distribution:               0.00000136846112
  Self energy of the core charge distribution:                -76.65906668574564
  Core Hamiltonian energy:                                     24.41020810111290
  Hartree energy:                                              44.50464752931329
  Exchange-correlation energy:                                 -6.99824370730604
  Hartree-Fock Exchange energy:                                -1.70035829528962

  GAPW| Exc from hard and soft atomic rho1:                    -0.36064614340143
  GAPW| local Eh = 1 center integrals:                        -13.65286754270970

  Total energy:                                               -30.45632537556513

  outer SCF iter =    1 RMS gradient =   0.63E-04 energy =        -30.4563253756
  outer SCF loop converged in   1 iterations or   17 steps

  
  Eigenvalues of the occupied subspace spin            1
 ---------------------------------------------
      -0.90464767     -0.70751071     -0.53597420     -0.43752842
      -0.41463208     -0.34104373     -0.29656478     -0.26862691
      -0.24701698     -0.13095784
 Fermi Energy [eV] :   -3.563544
  
  Lowest Eigenvalues of the unoccupied subspace spin            1
 -----------------------------------------------------
 OT| Eigensolver reached convergence in 15 iterations
       0.09463601
  
 HOMO - LUMO gap [eV] :    6.138721

 ENERGY| Total FORCE_EVAL ( QS ) energy [a.u.]:              -30.456325375565129

 -------------------------------------------------------------------------------
 -                                                                             -
 -                                DBCSR STATISTICS                             -
 -                                                                             -
 -------------------------------------------------------------------------------
 COUNTER                                    TOTAL       BLAS       SMM       ACC
 flops    10 x     1 x    10                  200     100.0%      0.0%      0.0%
 flops    10 x     1 x    18                  360     100.0%      0.0%      0.0%
 flops    18 x     1 x    10                  360     100.0%      0.0%      0.0%
 flops     1 x     1 x    18                 1044     100.0%      0.0%      0.0%
 flops     1 x    10 x    10                 1200     100.0%      0.0%      0.0%
 flops    18 x     1 x     1                 1656     100.0%      0.0%      0.0%
 flops    11 x     1 x    11                 1936     100.0%      0.0%      0.0%
 flops     4 x    10 x    10                 2400     100.0%      0.0%      0.0%
 flops     1 x     1 x     1                 2450     100.0%      0.0%      0.0%
 flops    11 x     1 x    18                 3168     100.0%      0.0%      0.0%
 flops    18 x     1 x    11                 3168     100.0%      0.0%      0.0%
 flops    11 x    11 x    18                 4356     100.0%      0.0%      0.0%
 flops     4 x     1 x     1                 4608     100.0%      0.0%      0.0%
 flops     1 x     1 x     4                 4608     100.0%      0.0%      0.0%
 flops    18 x     1 x    18                 5184     100.0%      0.0%      0.0%
 flops    18 x    11 x    18                 7128     100.0%      0.0%      0.0%
 flops     1 x     1 x    10                 7980     100.0%      0.0%      0.0%
 flops     4 x     1 x     4                 9216     100.0%      0.0%      0.0%
 flops     4 x     1 x    10                13680     100.0%      0.0%      0.0%
 flops     1 x     4 x    10                13680     100.0%      0.0%      0.0%
 flops     1 x    10 x     1                30240     100.0%      0.0%      0.0%
 flops     4 x     4 x    10                36480     100.0%      0.0%      0.0%
 flops     4 x    10 x     1                60480     100.0%      0.0%      0.0%
 flops     1 x    10 x     4                60480     100.0%      0.0%      0.0%
 flops    18 x    10 x    18               116640     100.0%      0.0%      0.0%
 flops     4 x    10 x     4               120960     100.0%      0.0%      0.0%
 flops    10 x    10 x    18               248400     100.0%      0.0%      0.0%
 flops    10 x    10 x    10               294000     100.0%      0.0%      0.0%
 flops    18 x    10 x    10               302400     100.0%      0.0%      0.0%
 flops inhomo. stacks                           0       0.0%      0.0%      0.0%
 flops total                         1.358462E+06     100.0%      0.0%      0.0%
 flops max/rank                      1.358462E+06     100.0%      0.0%      0.0%
 matmuls inhomo. stacks                         0       0.0%      0.0%      0.0%
 matmuls total                               7361     100.0%      0.0%      0.0%
 number of processed stacks                   877     100.0%      0.0%      0.0%
 average stack size                                     8.4       0.0       0.0
 marketing flops                     1.413434E+06
 -------------------------------------------------------------------------------
 # multiplications                            600
 max memory usage/rank               1.882976E+09
 # max total images/rank                        1
 # max 3D layers                                1
 # MPI messages exchanged                       0
 -------------------------------------------------------------------------------

 -------------------------------------------------------------------------------
 -                                                                             -
 -                                DBM STATISTICS                               -
 -                                                                             -
 -------------------------------------------------------------------------------
    M  x    N  x    K                                          COUNT     PERCENT
 -------------------------------------------------------------------------------

 -------------------------------------------------------------------------------
 -                                                                             -
 -                                GRID STATISTICS                              -
 -                                                                             -
 -------------------------------------------------------------------------------
 LP    KERNEL             BACKEND                              COUNT     PERCENT
 0     collocate ortho    REF                                  12720      24.19%
 0     integrate ortho    REF                                  11934      22.70%
 1     collocate ortho    REF                                  10770      20.48%
 1     integrate ortho    REF                                  10132      19.27%
 2     collocate ortho    REF                                   3456       6.57%
 2     integrate ortho    REF                                   3264       6.21%
 0     collocate general  REF                                    102       0.19%
 0     integrate general  REF                                    102       0.19%
 2     collocate general  REF                                     51       0.10%
 2     integrate general  REF                                     51       0.10%
 -------------------------------------------------------------------------------

 MEMORY| Estimated peak process memory [MiB]                                1850

 -------------------------------------------------------------------------------
 ----                             MULTIGRID INFO                            ----
 -------------------------------------------------------------------------------
 count for grid        1:           2542          cutoff [a.u.]          200.00
 count for grid        2:           1693          cutoff [a.u.]           66.67
 count for grid        3:           1333          cutoff [a.u.]           22.22
 count for grid        4:           1091          cutoff [a.u.]            7.41
 total gridlevel count  :           6659

 -------------------------------------------------------------------------------
 -                                                                             -
 -                           R E F E R E N C E S                               -
 -                                                                             -
 -------------------------------------------------------------------------------
 
 CP2K version 2023.1 (Development Version), the CP2K developers group (2023).
 CP2K is freely available from https://www.cp2k.org/ .

 Kuehne,Thomas D.; Iannuzzi,Marcella; Del Ben,Mauro;
 Rybkin,Vladimir V.; Seewald,Patrick; Stein,Frederick; Laino,Teodoro;
 Khaliullin,Rustam Z.; Schuett,Ole; Schiffmann,Florian; Golze,Dorothea;
 Wilhelm,Jan; Chulkov,Sergey; Bani-Hashemian,Mohammad Hossein;
 Weber,Valery; Borstnik,Urban; Taillefumier,Mathieu;
 Jakobovits,Alice Shoshana; Lazzaro,Alfio; Pabst,Hans; Mueller,Tiziano;
 Schade,Robert; Guidon,Manuel; Andermatt,Samuel; Holmberg,Nico;
 Schenter,Gregory K.; Hehn,Anna; Bussy,Augustin; Belleflamme,Fabian;
 Tabacchi,Gloria; Gloess,Andreas; Lass,Michael; Bethune,Iain;
 Mundy,Christopher J.; Plessl,Christian; Watkins,Matt;
 VandeVondele,Joost; Krack,Matthias; Hutter,Juerg. 
 The Journal of Chemical Physics, 152 (19), (2020). 
 CP2K: An electronic structure and molecular dynamics software package -
 Quickstep: Efficient and accurate electronic structure calculations.
 https://doi.org/10.1063/5.0007045

 Schuett, Ole; Messmer, Peter; Hutter, Juerg; VandeVondele, Joost. 
 Electronic Structure Calculations on Graphics Processing Units, John
 Wiley & Sons, Ltd, 173-190 (2016). 
 GPU-Accelerated Sparse Matrix-Matrix Multiplication for
 Linear Scaling Density Functional Theory.
 https://doi.org/10.1002/9781118670712.ch8

 Borstnik, U; VandeVondele, J; Weber, V; Hutter, J. 
 PARALLEL COMPUTING, 40 (5-6), 47-58 (2014). 
 Sparse matrix multiplication: The distributed block-compressed sparse
 row library.
 https://doi.org/10.1016/j.parco.2014.03.012

 Hutter, J; Iannuzzi, M; Schiffmann, F; VandeVondele, J. 
 WIREs Comput Mol Sci., 4 (1), 15-25 (2014). 
 CP2K: atomistic simulations of condensed matter systems.
 https://doi.org/10.1002/wcms.1159

 Guidon, M; Hutter, J; VandeVondele, J. 
 JOURNAL OF CHEMICAL THEORY AND COMPUTATION, 5 (11), 3010-3021 (2009). 
 Robust Periodic Hartree-Fock Exchange for Large-Scale Simulations Using
 Gaussian Basis Sets.
 https://doi.org/10.1021/ct900494g

 Guidon, M; Schiffmann, F; Hutter, J; VandeVondele, J. 
 JOURNAL OF CHEMICAL PHYSICS, 128 (21), 214104 (2008). 
 Ab initio molecular dynamics using hybrid density functionals.
 https://doi.org/10.1063/1.2931945

 VandeVondele, J; Hutter, J. 
 JOURNAL OF CHEMICAL PHYSICS, 127 (11), 114105 (2007). 
 Gaussian basis sets for accurate calculations on molecular systems in
 gas and condensed phases.
 https://doi.org/10.1063/1.2770708

 Genovese, L; Deutsch, T; Goedecker, S. 
 JOURNAL OF CHEMICAL PHYSICS, 127 (5), 054704 (2007). 
 Efficient and accurate three-dimensional Poisson solver for surface
 problems.
 https://doi.org/10.1063/1.2754685

 Genovese, L; Deutsch, T; Neelov, A; Goedecker, S; Beylkin, G. 
 JOURNAL OF CHEMICAL PHYSICS, 125 (7), 074105 (2006). 
 Efficient solution of Poisson's equation with free boundary conditions.
 https://doi.org/10.1063/1.2335442

 Krack, M. 
 THEORETICAL CHEMISTRY ACCOUNTS, 114 (1-3), 145-152 (2005). 
 Pseudopotentials for H to Kr optimized for gradient-corrected
 exchange-correlation functionals.
 https://doi.org/10.1007/s00214-005-0655-y

 Frigo, M; Johnson, SG. 
 PROCEEDINGS OF THE IEEE, 93 (2), 216-231 (2005). 
 The design and implementation of FFTW3.
 https://doi.org/10.1109/JPROC.2004.840301

 VandeVondele, J; Hutter, J. 
 JOURNAL OF CHEMICAL PHYSICS, 118 (10), 4365-4369 (2003). 
 An efficient orbital transformation method for electronic structure
 calculations.
 https://doi.org/10.1063/1.1543154

 Lippert, G; Hutter, J; Parrinello, M. 
 THEORETICAL CHEMISTRY ACCOUNTS, 103 (2), 124-140 (1999). 
 The Gaussian and augmented-plane-wave density functional method for ab
 initio molecular dynamics simulations.
 https://doi.org/10.1007/s002140050523

 Krack, M; Parrinello, M. 
 PHYSICAL CHEMISTRY CHEMICAL PHYSICS, 2 (10), 2105-2112 (2000). 
 All-electron ab-initio molecular dynamics.
 https://doi.org/10.1039/b001167n

 Hartwigsen, C; Goedecker, S; Hutter, J. 
 PHYSICAL REVIEW B, 58 (7), 3641-3662 (1998). 
 Relativistic separable dual-space Gaussian pseudopotentials from H to Rn.
 https://doi.org/10.1103/PhysRevB.58.3641

 Goedecker, S; Teter, M; Hutter, J. 
 PHYSICAL REVIEW B, 54 (3), 1703-1710 (1996). 
 Separable dual-space Gaussian pseudopotentials.
 https://doi.org/10.1103/PhysRevB.54.1703

 BECKE, AD. PHYSICAL REVIEW A, 38 (6), 3098-3100 (1988). 
 DENSITY-FUNCTIONAL EXCHANGE-ENERGY APPROXIMATION WITH CORRECT
 ASYMPTOTIC-BEHAVIOR.
 https://doi.org/10.1103/PhysRevA.38.3098

 LEE, CT; YANG, WT; PARR, RG. 
 PHYSICAL REVIEW B, 37 (2), 785-789 (1988). 
 DEVELOPMENT OF THE COLLE-SALVETTI CORRELATION-ENERGY FORMULA INTO A
 FUNCTIONAL OF THE ELECTRON-DENSITY.
 https://doi.org/10.1103/PhysRevB.37.785


 -------------------------------------------------------------------------------
 -                                                                             -
 -                                T I M I N G                                  -
 -                                                                             -
 -------------------------------------------------------------------------------
 SUBROUTINE                       CALLS  ASD         SELF TIME        TOTAL TIME
                                MAXIMUM       AVERAGE  MAXIMUM  AVERAGE  MAXIMUM
 CP2K                                 1  1.0    0.217    0.217  148.384  148.384
 qs_energies                          1  2.0    0.010    0.010  145.933  145.933
 scf_env_do_scf                       1  3.0    0.001    0.001  141.779  141.779
 scf_env_do_scf_inner_loop           17  4.0    0.003    0.003  130.110  130.110
 qs_ks_update_qs_env                 18  5.0    0.000    0.000  126.731  126.731
 rebuild_ks_matrix                   17  6.0    0.000    0.000  126.730  126.730
 qs_ks_build_kohn_sham_matrix        17  7.0    0.014    0.014  126.730  126.730
 pw_transfer                        372 10.0    0.026    0.026   87.524   87.524
 fft_wrap_pw1pw2                    355 11.0    0.003    0.003   87.324   87.324
 fft_wrap_pw1pw2_200                244 12.3    7.377    7.377   84.651   84.651
 qs_vxc_create                       17  8.0    0.003    0.003   60.577   60.577
 xc_vxc_pw_create                    17  9.0    0.914    0.914   60.575   60.575
 fft3d_s                            356 13.0   42.060   42.060   42.085   42.085
 xc_pw_derive                       102 11.0    0.001    0.001   39.651   39.651
 pw_poisson_solve                    17  8.0    7.091    7.091   39.524   39.524
 xc_rho_set_and_dset_create          17 10.0    6.073    6.073   31.239   31.239
 xc_pw_divergence                    17 10.0    0.001    0.001   27.977   27.977
 pw_gather_s                        182 12.6   22.259   22.259   22.259   22.259
 qs_rho_update_rho_low               18  5.0    0.001    0.001   15.759   15.759
 calculate_rho_elec                  18  6.0    0.457    0.457   15.746   15.746
 pw_scatter_s                       173 13.4   15.492   15.492   15.492   15.492
 ps_wavelet_solve                    17  9.0   14.539   14.539   14.974   14.974
 density_rs2pw                       18  7.0    0.004    0.004   14.500   14.500
 init_scf_loop                        1  4.0    0.005    0.005   11.668   11.668
 sum_up_and_integrate                17  8.0    0.625    0.625    9.444    9.444
 integrate_v_rspace                  17  9.0    0.001    0.001    8.819    8.819
 potential_pw2rs                     17 10.0    0.017    0.017    8.400    8.400
 prepare_gapw_den                    17  8.0    0.001    0.001    7.699    7.699
 put_rho0_on_grid                    17  9.0    0.437    0.437    7.661    7.661
 xc_functional_eval                 969 10.1    0.006    0.006    6.696    6.696
 xb88_lda_eval                      323 11.1    3.755    3.755    3.755    3.755
 pw_derive                          102 12.0    3.471    3.471    3.471    3.471
 scf_post_calculation_gpw             1  3.0    0.000    0.000    3.067    3.067
 -------------------------------------------------------------------------------

 The number of warnings for this run is : 1
 
 -------------------------------------------------------------------------------
  **** **** ******  **  PROGRAM ENDED AT                 2023-04-05 10:32:47.444
 ***** ** ***  *** **   PROGRAM RAN ON                               eu-g5-002-3
 **    ****   ******    PROGRAM RAN BY                                 jbachmann
 ***** **    ** ** **   PROGRAM PROCESS ID                                 24557
  **** **  *******  **  PROGRAM STOPPED IN /cluster/home/jbachmann/Molecular-and
                                           -Materials-Modelling-FS2023/exercise7
                                           /B3LYP/SZV
