 DBCSR| CPU Multiplication driver                                           XSMM
 DBCSR| Multrec recursion limit                                              512
 DBCSR| Multiplication stack size                                           1000
 DBCSR| Maximum elements for images                                    UNLIMITED
 DBCSR| Multiplicative factor virtual images                                   1
 DBCSR| Use multiplication densification                                       T
 DBCSR| Multiplication size stacks                                             3
 DBCSR| Use memory pool for CPU allocation                                     F
 DBCSR| Number of 3D layers                                               SINGLE
 DBCSR| Use MPI memory allocation                                              F
 DBCSR| Use RMA algorithm                                                      F
 DBCSR| Use Communication thread                                               T
 DBCSR| Communication thread load                                             87
 DBCSR| MPI: My node id                                                        0
 DBCSR| MPI: Number of nodes                                                 256
 DBCSR| OMP: Current number of threads                                         1
 DBCSR| OMP: Max number of threads                                             1
 DBCSR| Split modifier for TAS multiplication algorithm                  1.0E+00


  **** **** ******  **  PROGRAM STARTED AT               2023-04-19 15:46:39.218
 ***** ** ***  *** **   PROGRAM STARTED ON                             nid001121
 **    ****   ******    PROGRAM STARTED BY                              dpassero
 ***** **    ** ** **   PROGRAM PROCESS ID                                 70470
  **** **  *******  **  PROGRAM STARTED IN /scratch/e1000/dpassero/MMM_2023/jbac
                                           hmann/grimme_d3/ethane/full

 CP2K| version string:                 CP2K version 2022.1 (Development Version)
 CP2K| source code revision number:                                  git:4ddb46c
 CP2K| cp2kflags: omp libint fftw3 libxc elpa parallel mpi3 scalapack xsmm max_c
 CP2K|            ontr=4 plumed2 spglib
 CP2K| is freely available from                            https://www.cp2k.org/
 CP2K| Program compiled at                      Wed 14 Sep 2022 12:18:41 PM CEST
 CP2K| Program compiled on                                             nid001080
 CP2K| Program compiled for                                 Eiger-gfortran_May22
 CP2K| Data directory path         /users/mmi/DEV/CP2K/trunk_new/eiger/cp2k/data
 CP2K| Input file name        /scratch/e1000/dpassero/MMM_2023/jbachmann/grimme_

 GLOBAL| Force Environment number                                              1
 GLOBAL| Basis set file name                                        BASIS_MOLOPT
 GLOBAL| Potential file name                                           POTENTIAL
 GLOBAL| MM Potential file name                                     MM_POTENTIAL
 GLOBAL| Coordinate file name                                   ethane_on_pt.xyz
 GLOBAL| Method name                                                        CP2K
 GLOBAL| Project name                                               ethane_on_pt
 GLOBAL| Run type                                                        GEO_OPT
 GLOBAL| FFT library                                                       FFTW3
 GLOBAL| Diagonalization library                                            ELPA
 GLOBAL| DGEMM library                                                      BLAS
 GLOBAL| Minimum number of eigenvectors for ELPA usage                        16
 GLOBAL| Orthonormality check for eigenvectors                          DISABLED
 GLOBAL| Matrix multiplication library                                 ScaLAPACK
 GLOBAL| All-to-all communication in single precision                          F
 GLOBAL| FFTs using library dependent lengths                                  T
 GLOBAL| Grid backend                                                       AUTO
 GLOBAL| Global print level                                                  LOW
 GLOBAL| MPI I/O enabled                                                       T
 GLOBAL| Total number of message passing processes                           256
 GLOBAL| Number of threads for this process                                    1
 GLOBAL| This output is from process                                           0
 GLOBAL| Stack size for threads created by OpenMP (OMP_STACKSIZE)           100M
 GLOBAL| CPU model name                          AMD EPYC 7742 64-Core Processor
 GLOBAL| CPUID                                                              1002

 MEMORY| system memory details [Kb]
 MEMORY|                        rank 0           min           max       average
 MEMORY| MemTotal            263506204     263506204     263506204     263506204
 MEMORY| MemFree             227713252     227569344     227713252     227641298
 MEMORY| Buffers                476960        448580        476960        462770
 MEMORY| Cached                7669832       7669832       7991600       7830716
 MEMORY| Slab                  8025440       7875680       8025456       7950562
 MEMORY| SReclaimable           694788        620604        694788        657696
 MEMORY| MemLikelyFree       236554832     236554832     236630128     236592480


 GENERATE|  Preliminary Number of Bonds generated:                             0
 GENERATE|  Achieved consistency in connectivity generation.

 *******************************************************************************
 *******************************************************************************
 **                                                                           **
 **     #####                         ##              ##                      **
 **    ##   ##            ##          ##              ##                      **
 **   ##     ##                       ##            ######                    **
 **   ##     ##  ##   ##  ##   #####  ##  ##   ####   ##    #####    #####    **
 **   ##     ##  ##   ##  ##  ##      ## ##   ##      ##   ##   ##  ##   ##   **
 **   ##  ## ##  ##   ##  ##  ##      ####     ###    ##   ######   ######    **
 **    ##  ###   ##   ##  ##  ##      ## ##      ##   ##   ##       ##        **
 **     #######   #####   ##   #####  ##  ##  ####    ##    #####   ##        **
 **           ##                                                    ##        **
 **                                                                           **
 **                                                ... make the atoms dance   **
 **                                                                           **
 **            Copyright (C) by CP2K developers group (2000-2022)             **
 **                      J. Chem. Phys. 152, 194103 (2020)                    **
 **                                                                           **
 *******************************************************************************


 TOTAL NUMBERS AND MAXIMUM NUMBERS

  Total number of            - Atomic kinds:                                   3
                             - Atoms:                                        188
                             - Shell sets:                                   188
                             - Shells:                                      1468
                             - Primitive Cartesian functions:               1136
                             - Cartesian basis functions:                   5638
                             - Spherical basis functions:                   4736

  Maximum angular momentum of- Orbital basis functions:                        3
                             - Local part of the GTH pseudopotential:          2
                             - Non-local part of the GTH pseudopotential:      5


 SCF PARAMETERS         Density guess:                                   RESTART
                        --------------------------------------------------------
                        max_scf:                                              30
                        max_scf_history:                                       0
                        max_diis:                                              4
                        --------------------------------------------------------
                        eps_scf:                                        1.00E-06
                        eps_scf_history:                                0.00E+00
                        eps_diis:                                       1.00E-01
                        eps_eigval:                                     1.00E-05
                        --------------------------------------------------------
                        level_shift [a.u.]:                             0.000000
                        --------------------------------------------------------
                        Outer loop SCF in use 
                        No variables optimised in outer loop
                        eps_scf                                         1.00E-06
                        max_scf                                               20
                        No outer loop optimization
                        step_size                                       5.00E-01

 BFGS| Use rational function optimization for step estimation:                NO
 BFGS| Use model Hessian for initial guess:                                  YES
 BFGS| Restart Hessian:                                                       NO
 BFGS| Trust radius:                                                       0.100

 *******************************************************************************
 ***                     STARTING GEOMETRY OPTIMIZATION                      ***
 ***                                   BFGS                                  ***
 *******************************************************************************

 Number of electrons:                                                       3254
 Number of occupied orbitals:                                               1627
 Number of molecular orbitals:                                              1627

 Number of orbital functions:                                               4736
 Number of independent orbital functions:                                   4736

 Extrapolation method: initial_guess


 SCF WAVEFUNCTION OPTIMIZATION

  ----------------------------------- OT ---------------------------------------
  Minimizer      : DIIS                : direct inversion
                                         in the iterative subspace
                                         using   7 DIIS vectors
                                         safer DIIS on
  Preconditioner : FULL_KINETIC        : inversion of T + eS
  Precond_solver : DEFAULT
  stepsize       :    0.15000000                  energy_gap     :    0.20000000
  eps_taylor     :   0.10000E-15                  max_taylor     :             4
  ----------------------------------- OT ---------------------------------------

  Step     Update method      Time    Convergence         Total energy    Change
  ------------------------------------------------------------------------------
     1 OT DIIS     0.15E+00    1.1     0.00051898    -21651.1277605654 -2.17E+04
     2 OT DIIS     0.15E+00    1.2     0.00028304    -21651.3464760300 -2.19E-01
     3 OT DIIS     0.15E+00    1.2     0.00019826    -21651.4292550551 -8.28E-02
     4 OT DIIS     0.15E+00    1.2     0.00014886    -21651.4701363777 -4.09E-02
     5 OT DIIS     0.15E+00    1.2     0.00012708    -21651.4896326097 -1.95E-02
     6 OT DIIS     0.15E+00    1.2     0.00008064    -21651.5046957546 -1.51E-02
     7 OT DIIS     0.15E+00    1.2     0.00006732    -21651.5117526529 -7.06E-03
     8 OT DIIS     0.15E+00    1.2     0.00005414    -21651.5196241397 -7.87E-03
     9 OT DIIS     0.15E+00    1.2     0.00004665    -21651.5249063416 -5.28E-03
    10 OT DIIS     0.15E+00    1.2     0.00003713    -21651.5300917089 -5.19E-03
    11 OT DIIS     0.15E+00    1.2     0.00003293    -21651.5329705018 -2.88E-03
    12 OT DIIS     0.15E+00    1.2     0.00002956    -21651.5355758768 -2.61E-03
    13 OT DIIS     0.15E+00    1.2     0.00002665    -21651.5380361642 -2.46E-03
    14 OT DIIS     0.15E+00    1.5     0.00002423    -21651.5402770319 -2.24E-03
    15 OT DIIS     0.15E+00    1.4     0.00002250    -21651.5419042130 -1.63E-03
    16 OT DIIS     0.15E+00    1.4     0.00002046    -21651.5433011785 -1.40E-03
    17 OT DIIS     0.15E+00    1.4     0.00001851    -21651.5446431485 -1.34E-03
    18 OT DIIS     0.15E+00    1.4     0.00001730    -21651.5456819173 -1.04E-03
    19 OT DIIS     0.15E+00    1.4     0.00001626    -21651.5466115730 -9.30E-04
    20 OT DIIS     0.15E+00    1.4     0.00001526    -21651.5474346443 -8.23E-04
    21 OT DIIS     0.15E+00    1.4     0.00001425    -21651.5483868731 -9.52E-04
    22 OT DIIS     0.15E+00    1.4     0.00001356    -21651.5491414044 -7.55E-04
    23 OT DIIS     0.15E+00    1.4     0.00001303    -21651.5498017041 -6.60E-04
    24 OT DIIS     0.15E+00    1.4     0.00001262    -21651.5503392280 -5.38E-04
    25 OT DIIS     0.15E+00    1.4     0.00001198    -21651.5509099922 -5.71E-04
    26 OT DIIS     0.15E+00    1.4     0.00001137    -21651.5516055701 -6.96E-04
    27 OT DIIS     0.15E+00    1.4     0.00001097    -21651.5521650339 -5.59E-04
    28 OT DIIS     0.15E+00    1.4     0.00001041    -21651.5527425915 -5.78E-04
    29 OT DIIS     0.15E+00    1.4     0.00000991    -21651.5533132602 -5.71E-04
    30 OT DIIS     0.15E+00    1.4     0.00000954    -21651.5538879879 -5.75E-04

  Leaving inner SCF loop after reaching    30 steps.


  Electronic density on regular grids:      -3253.9999999967        0.0000000033
  Core density on regular grids:             3253.9999999998       -0.0000000002
  Total charge density on r-space grids:        0.0000000031
  Total charge density g-space grids:           0.0000000031

  Overlap energy of the core charge distribution:               0.00000177473249
  Self energy of the core charge distribution:             -32938.66937211190088
  Core Hamiltonian energy:                                   7325.09328659482708
  Hartree energy:                                            6080.25501520661965
  Exchange-correlation energy:                              -2114.23480363957515
  Dispersion energy:                                           -3.99801581261219

  Total energy:                                            -21651.55388798791319

  outer SCF iter =    1 RMS gradient =   0.95E-05 energy =     -21651.5538879879

  ----------------------------------- OT ---------------------------------------
  Minimizer      : DIIS                : direct inversion
                                         in the iterative subspace
                                         using   7 DIIS vectors
                                         safer DIIS on
  Preconditioner : FULL_KINETIC        : inversion of T + eS
  Precond_solver : DEFAULT
  stepsize       :    0.15000000                  energy_gap     :    0.20000000
  eps_taylor     :   0.10000E-15                  max_taylor     :             4
  ----------------------------------- OT ---------------------------------------

  Step     Update method      Time    Convergence         Total energy    Change
  ------------------------------------------------------------------------------
     1 OT DIIS     0.15E+00    2.9     0.00000922    -21651.5544604526 -5.72E-04
     2 OT DIIS     0.15E+00    1.2     0.00001051    -21651.5545406669 -8.02E-05
     3 OT DIIS     0.15E+00    1.2     0.00000845    -21651.5545773023 -3.66E-05
     4 OT DIIS     0.15E+00    1.2     0.00000839    -21651.5547127710 -1.35E-04
     5 OT DIIS     0.15E+00    1.2     0.00000788    -21651.5551383037 -4.26E-04
     6 OT DIIS     0.15E+00    1.2     0.00000770    -21651.5552833785 -1.45E-04
     7 OT DIIS     0.15E+00    1.2     0.00000750    -21651.5557396110 -4.56E-04
     8 OT DIIS     0.15E+00    1.2     0.00000704    -21651.5564014059 -6.62E-04
     9 OT DIIS     0.15E+00    1.2     0.00000679    -21651.5569149892 -5.14E-04
    10 OT DIIS     0.15E+00    1.2     0.00000654    -21651.5572879580 -3.73E-04
    11 OT DIIS     0.15E+00    1.2     0.00000614    -21651.5580633557 -7.75E-04
    12 OT DIIS     0.15E+00    1.2     0.00000562    -21651.5587140884 -6.51E-04
    13 OT DIIS     0.15E+00    1.2     0.00000539    -21651.5590220518 -3.08E-04
    14 OT DIIS     0.15E+00    1.2     0.00000521    -21651.5592147810 -1.93E-04
    15 OT DIIS     0.15E+00    1.2     0.00000505    -21651.5594736375 -2.59E-04
    16 OT DIIS     0.15E+00    1.2     0.00000467    -21651.5597475495 -2.74E-04
    17 OT DIIS     0.15E+00    1.2     0.00000452    -21651.5598987606 -1.51E-04
    18 OT DIIS     0.15E+00    1.2     0.00000439    -21651.5600049810 -1.06E-04
    19 OT DIIS     0.15E+00    1.2     0.00000429    -21651.5601086826 -1.04E-04
    20 OT DIIS     0.15E+00    1.2     0.00000413    -21651.5602081289 -9.94E-05
    21 OT DIIS     0.15E+00    1.2     0.00000406    -21651.5602654287 -5.73E-05
    22 OT DIIS     0.15E+00    1.2     0.00000403    -21651.5602962613 -3.08E-05
    23 OT DIIS     0.15E+00    1.2     0.00000399    -21651.5603389794 -4.27E-05
    24 OT DIIS     0.15E+00    1.2     0.00000391    -21651.5603992542 -6.03E-05
    25 OT DIIS     0.15E+00    1.2     0.00000386    -21651.5604450492 -4.58E-05
    26 OT DIIS     0.15E+00    1.2     0.00000383    -21651.5604799224 -3.49E-05
    27 OT DIIS     0.15E+00    1.2     0.00000380    -21651.5605222235 -4.23E-05
    28 OT DIIS     0.15E+00    1.2     0.00000377    -21651.5605735310 -5.13E-05
    29 OT DIIS     0.15E+00    1.2     0.00000374    -21651.5606246857 -5.12E-05
    30 OT DIIS     0.15E+00    1.2     0.00000371    -21651.5606589688 -3.43E-05

  Leaving inner SCF loop after reaching    30 steps.


  Electronic density on regular grids:      -3253.9999999967        0.0000000033
  Core density on regular grids:             3253.9999999998       -0.0000000002
  Total charge density on r-space grids:        0.0000000031
  Total charge density g-space grids:           0.0000000031

  Overlap energy of the core charge distribution:               0.00000177473249
  Self energy of the core charge distribution:             -32938.66937211190088
  Core Hamiltonian energy:                                   7324.97322926091874
  Hartree energy:                                            6080.33879150061330
  Exchange-correlation energy:                              -2114.20529358052863
  Dispersion energy:                                           -3.99801581261219

  Total energy:                                            -21651.56065896878135

  outer SCF iter =    2 RMS gradient =   0.37E-05 energy =     -21651.5606589688

  ----------------------------------- OT ---------------------------------------
  Minimizer      : DIIS                : direct inversion
                                         in the iterative subspace
                                         using   7 DIIS vectors
                                         safer DIIS on
  Preconditioner : FULL_KINETIC        : inversion of T + eS
  Precond_solver : DEFAULT
  stepsize       :    0.15000000                  energy_gap     :    0.20000000
  eps_taylor     :   0.10000E-15                  max_taylor     :             4
  ----------------------------------- OT ---------------------------------------

  Step     Update method      Time    Convergence         Total energy    Change
  ------------------------------------------------------------------------------
     1 OT DIIS     0.15E+00    2.7     0.00000369    -21651.5607200295 -6.11E-05
     2 OT DIIS     0.15E+00    1.2     0.00000375    -21651.5607353427 -1.53E-05
     3 OT DIIS     0.15E+00    1.2     0.00000364    -21651.5607412628 -5.92E-06
     4 OT DIIS     0.15E+00    1.2     0.00000363    -21651.5607755463 -3.43E-05
     5 OT DIIS     0.15E+00    1.2     0.00000354    -21651.5609215450 -1.46E-04
     6 OT DIIS     0.15E+00    1.2     0.00000350    -21651.5609763237 -5.48E-05
     7 OT DIIS     0.15E+00    1.2     0.00000340    -21651.5612504227 -2.74E-04
     8 OT DIIS     0.15E+00    1.2     0.00000317    -21651.5616726948 -4.22E-04
     9 OT DIIS     0.15E+00    1.2     0.00000309    -21651.5618580167 -1.85E-04
    10 OT DIIS     0.15E+00    1.2     0.00000300    -21651.5620414183 -1.83E-04
    11 OT DIIS     0.15E+00    1.2     0.00000288    -21651.5624890351 -4.48E-04
    12 OT DIIS     0.15E+00    1.2     0.00000252    -21651.5628096439 -3.21E-04
    13 OT DIIS     0.15E+00    1.2     0.00000242    -21651.5629229596 -1.13E-04
    14 OT DIIS     0.15E+00    1.2     0.00000235    -21651.5629927560 -6.98E-05
    15 OT DIIS     0.15E+00    1.2     0.00000228    -21651.5630573463 -6.46E-05
    16 OT DIIS     0.15E+00    1.2     0.00000221    -21651.5631255172 -6.82E-05
    17 OT DIIS     0.15E+00    1.2     0.00000216    -21651.5631536881 -2.82E-05
    18 OT SD       0.15E+00    1.2     0.00000214    -21651.5631696393 -1.60E-05
    19 OT DIIS     0.15E+00    1.2     0.00000214    -21651.5631748441 -5.20E-06
    20 OT DIIS     0.15E+00    1.2     0.00000211    -21651.5631923278 -1.75E-05
    21 OT DIIS     0.15E+00    1.2     0.00000209    -21651.5632006985 -8.37E-06
    22 OT DIIS     0.15E+00    1.2     0.00000209    -21651.5632072087 -6.51E-06
    23 OT DIIS     0.15E+00    1.2     0.00000208    -21651.5632099103 -2.70E-06
    24 OT DIIS     0.15E+00    1.2     0.00000207    -21651.5632203928 -1.05E-05
    25 OT DIIS     0.15E+00    1.2     0.00000206    -21651.5632296134 -9.22E-06
    26 OT DIIS     0.15E+00    1.2     0.00000206    -21651.5632501518 -2.05E-05
    27 OT DIIS     0.15E+00    1.2     0.00000205    -21651.5632655367 -1.54E-05
    28 OT DIIS     0.15E+00    1.2     0.00000203    -21651.5632972979 -3.18E-05
    29 OT DIIS     0.15E+00    1.2     0.00000202    -21651.5633220447 -2.47E-05
    30 OT DIIS     0.15E+00    1.2     0.00000201    -21651.5633634676 -4.14E-05

  Leaving inner SCF loop after reaching    30 steps.


  Electronic density on regular grids:      -3254.0000000059       -0.0000000059
  Core density on regular grids:             3253.9999999998       -0.0000000002
  Total charge density on r-space grids:       -0.0000000061
  Total charge density g-space grids:          -0.0000000061

  Overlap energy of the core charge distribution:               0.00000177473249
  Self energy of the core charge distribution:             -32938.66937211190088
  Core Hamiltonian energy:                                   7324.94526398182825
  Hartree energy:                                            6080.35636423464348
  Exchange-correlation energy:                              -2114.19760553429569
  Dispersion energy:                                           -3.99801581261219

  Total energy:                                            -21651.56336346761236

  outer SCF iter =    3 RMS gradient =   0.20E-05 energy =     -21651.5633634676

  ----------------------------------- OT ---------------------------------------
  Minimizer      : DIIS                : direct inversion
                                         in the iterative subspace
                                         using   7 DIIS vectors
                                         safer DIIS on
  Preconditioner : FULL_KINETIC        : inversion of T + eS
  Precond_solver : DEFAULT
  stepsize       :    0.15000000                  energy_gap     :    0.20000000
  eps_taylor     :   0.10000E-15                  max_taylor     :             4
  ----------------------------------- OT ---------------------------------------

  Step     Update method      Time    Convergence         Total energy    Change
  ------------------------------------------------------------------------------
     1 OT DIIS     0.15E+00    2.7     0.00000198    -21651.5634581329 -9.47E-05
     2 OT DIIS     0.15E+00    1.2     0.00000204    -21651.5634624946 -4.36E-06
     3 OT DIIS     0.15E+00    1.2     0.00000195    -21651.5634641428 -1.65E-06
     4 OT DIIS     0.15E+00    1.2     0.00000194    -21651.5634708603 -6.72E-06
     5 OT DIIS     0.15E+00    1.2     0.00000193    -21651.5634893105 -1.85E-05
     6 OT DIIS     0.15E+00    1.2     0.00000192    -21651.5634957289 -6.42E-06
     7 OT DIIS     0.15E+00    1.2     0.00000191    -21651.5635383532 -4.26E-05
     8 OT DIIS     0.15E+00    1.2     0.00000188    -21651.5636227594 -8.44E-05
     9 OT DIIS     0.15E+00    1.2     0.00000187    -21651.5636753941 -5.26E-05
    10 OT DIIS     0.15E+00    1.2     0.00000184    -21651.5637432621 -6.79E-05
    11 OT DIIS     0.15E+00    1.2     0.00000181    -21651.5639992678 -2.56E-04
    12 OT DIIS     0.15E+00    1.2     0.00000166    -21651.5643994260 -4.00E-04
    13 OT DIIS     0.15E+00    1.2     0.00000159    -21651.5645416784 -1.42E-04
    14 OT DIIS     0.15E+00    1.2     0.00000154    -21651.5646558107 -1.14E-04
    15 OT DIIS     0.15E+00    1.2     0.00000151    -21651.5647652256 -1.09E-04
    16 OT DIIS     0.15E+00    1.2     0.00000143    -21651.5649076078 -1.42E-04
    17 OT DIIS     0.15E+00    1.2     0.00000139    -21651.5649633185 -5.57E-05
    18 OT DIIS     0.15E+00    1.2     0.00000137    -21651.5649954018 -3.21E-05
    19 OT DIIS     0.15E+00    1.2     0.00000136    -21651.5650047210 -9.32E-06
    20 OT DIIS     0.15E+00    1.2     0.00000134    -21651.5650125632 -7.84E-06
    21 OT DIIS     0.15E+00    1.2     0.00000133    -21651.5650311246 -1.86E-05
    22 OT DIIS     0.15E+00    1.2     0.00000131    -21651.5650319962 -8.72E-07
    23 OT DIIS     0.15E+00    1.2     0.00000130    -21651.5650334950 -1.50E-06
    24 OT DIIS     0.15E+00    1.2     0.00000129    -21651.5650359941 -2.50E-06
    25 OT DIIS     0.15E+00    1.2     0.00000129    -21651.5650381375 -2.14E-06
    26 OT DIIS     0.15E+00    1.2     0.00000129    -21651.5650418844 -3.75E-06
    27 OT DIIS     0.15E+00    1.2     0.00000128    -21651.5650471977 -5.31E-06
    28 OT DIIS     0.15E+00    1.2     0.00000128    -21651.5650562507 -9.05E-06
    29 OT DIIS     0.15E+00    1.2     0.00000127    -21651.5650633816 -7.13E-06
    30 OT DIIS     0.15E+00    1.2     0.00000127    -21651.5650681649 -4.78E-06

  Leaving inner SCF loop after reaching    30 steps.


  Electronic density on regular grids:      -3254.0000000260       -0.0000000260
  Core density on regular grids:             3253.9999999998       -0.0000000002
  Total charge density on r-space grids:       -0.0000000262
  Total charge density g-space grids:          -0.0000000261

  Overlap energy of the core charge distribution:               0.00000177473249
  Self energy of the core charge distribution:             -32938.66937211190088
  Core Hamiltonian energy:                                   7324.90793567798755
  Hartree energy:                                            6080.38220906415245
  Exchange-correlation energy:                              -2114.18782675727107
  Dispersion energy:                                           -3.99801581261219

  Total energy:                                            -21651.56506816491674

  outer SCF iter =    4 RMS gradient =   0.13E-05 energy =     -21651.5650681649

  ----------------------------------- OT ---------------------------------------
  Minimizer      : DIIS                : direct inversion
                                         in the iterative subspace
                                         using   7 DIIS vectors
                                         safer DIIS on
  Preconditioner : FULL_KINETIC        : inversion of T + eS
  Precond_solver : DEFAULT
  stepsize       :    0.15000000                  energy_gap     :    0.20000000
  eps_taylor     :   0.10000E-15                  max_taylor     :             4
  ----------------------------------- OT ---------------------------------------

  Step     Update method      Time    Convergence         Total energy    Change
  ------------------------------------------------------------------------------
     1 OT DIIS     0.15E+00    2.7     0.00000126    -21651.5650784642 -1.03E-05
     2 OT DIIS     0.15E+00    1.2     0.00000127    -21651.5650802843 -1.82E-06
     3 OT DIIS     0.15E+00    1.2     0.00000125    -21651.5650809649 -6.81E-07
     4 OT DIIS     0.15E+00    1.2     0.00000125    -21651.5650860498 -5.08E-06
     5 OT DIIS     0.15E+00    1.2     0.00000124    -21651.5650957264 -9.68E-06
     6 OT DIIS     0.15E+00    1.2     0.00000124    -21651.5650998797 -4.15E-06
     7 OT DIIS     0.15E+00    1.2     0.00000124    -21651.5651278223 -2.79E-05
     8 OT DIIS     0.15E+00    1.2     0.00000122    -21651.5651621834 -3.44E-05
     9 OT DIIS     0.15E+00    1.2     0.00000121    -21651.5651919207 -2.97E-05
    10 OT DIIS     0.15E+00    1.2     0.00000121    -21651.5652218392 -2.99E-05
    11 OT DIIS     0.15E+00    1.2     0.00000119    -21651.5653335235 -1.12E-04
    12 OT DIIS     0.15E+00    1.2     0.00000115    -21651.5654177806 -8.43E-05
    13 OT DIIS     0.15E+00    1.2     0.00000114    -21651.5654577886 -4.00E-05
    14 OT DIIS     0.15E+00    1.2     0.00000112    -21651.5654923263 -3.45E-05
    15 OT DIIS     0.15E+00    1.2     0.00000111    -21651.5655492373 -5.69E-05
    16 OT DIIS     0.15E+00    1.2     0.00000110    -21651.5655804601 -3.12E-05
    17 OT DIIS     0.15E+00    1.2     0.00000109    -21651.5656000971 -1.96E-05
    18 OT DIIS     0.15E+00    1.2     0.00000108    -21651.5656077102 -7.61E-06
    19 OT DIIS     0.15E+00    1.2     0.00000108    -21651.5656184058 -1.07E-05
    20 OT DIIS     0.15E+00    1.2     0.00000107    -21651.5656254368 -7.03E-06
    21 OT DIIS     0.15E+00    1.2     0.00000107    -21651.5656312622 -5.83E-06
    22 OT DIIS     0.15E+00    1.2     0.00000107    -21651.5656348440 -3.58E-06
    23 OT DIIS     0.15E+00    1.2     0.00000106    -21651.5656423553 -7.51E-06
    24 OT DIIS     0.15E+00    1.2     0.00000105    -21651.5656478134 -5.46E-06
    25 OT DIIS     0.15E+00    1.2     0.00000105    -21651.5656530587 -5.25E-06
    26 OT DIIS     0.15E+00    1.2     0.00000105    -21651.5656586780 -5.62E-06
    27 OT DIIS     0.15E+00    1.2     0.00000104    -21651.5656681596 -9.48E-06
    28 OT DIIS     0.15E+00    1.2     0.00000104    -21651.5656736097 -5.45E-06
    29 OT DIIS     0.15E+00    1.2     0.00000104    -21651.5656780452 -4.44E-06
    30 OT DIIS     0.15E+00    1.2     0.00000103    -21651.5656828548 -4.81E-06

  Leaving inner SCF loop after reaching    30 steps.


  Electronic density on regular grids:      -3253.9999999984        0.0000000016
  Core density on regular grids:             3253.9999999998       -0.0000000002
  Total charge density on r-space grids:        0.0000000015
  Total charge density g-space grids:           0.0000000015

  Overlap energy of the core charge distribution:               0.00000177473249
  Self energy of the core charge distribution:             -32938.66937211190088
  Core Hamiltonian energy:                                   7324.87984774410870
  Hartree energy:                                            6080.40227092917848
  Exchange-correlation energy:                              -2114.18041537834824
  Dispersion energy:                                           -3.99801581261219

  Total energy:                                            -21651.56568285484536

  outer SCF iter =    5 RMS gradient =   0.10E-05 energy =     -21651.5656828548

  ----------------------------------- OT ---------------------------------------
  Minimizer      : DIIS                : direct inversion
                                         in the iterative subspace
                                         using   7 DIIS vectors
                                         safer DIIS on
  Preconditioner : FULL_KINETIC        : inversion of T + eS
  Precond_solver : DEFAULT
  stepsize       :    0.15000000                  energy_gap     :    0.20000000
  eps_taylor     :   0.10000E-15                  max_taylor     :             4
  ----------------------------------- OT ---------------------------------------

  Step     Update method      Time    Convergence         Total energy    Change
  ------------------------------------------------------------------------------
     1 OT DIIS     0.15E+00    2.7     0.00000102    -21651.5656931804 -1.03E-05
     2 OT DIIS     0.15E+00    1.2     0.00000103    -21651.5656943862 -1.21E-06
     3 OT DIIS     0.15E+00    1.2     0.00000102    -21651.5656948766 -4.90E-07
     4 OT DIIS     0.15E+00    1.2     0.00000102    -21651.5656969389 -2.06E-06
     5 OT DIIS     0.15E+00    1.2     0.00000102    -21651.5657050575 -8.12E-06
     6 OT DIIS     0.15E+00    1.2     0.00000101    -21651.5657075664 -2.51E-06
     7 OT DIIS     0.15E+00    1.2     0.00000101    -21651.5657182865 -1.07E-05
     8 OT DIIS     0.15E+00    1.2     0.00000100    -21651.5657390649 -2.08E-05
     9 OT DIIS     0.15E+00    1.2     0.00000100    -21651.5657556840 -1.66E-05
    10 OT DIIS     0.15E+00    1.2     0.00000100    -21651.5657733517 -1.77E-05

  *** SCF run converged in    10 steps ***


  Electronic density on regular grids:      -3253.9999999918        0.0000000082
  Core density on regular grids:             3253.9999999998       -0.0000000002
  Total charge density on r-space grids:        0.0000000080
  Total charge density g-space grids:           0.0000000080

  Overlap energy of the core charge distribution:               0.00000177473249
  Self energy of the core charge distribution:             -32938.66937211190088
  Core Hamiltonian energy:                                   7324.87807940345010
  Hartree energy:                                            6080.40353081610192
  Exchange-correlation energy:                              -2114.17999742144366
  Dispersion energy:                                           -3.99801581261219

  Total energy:                                            -21651.56577335167822

  outer SCF iter =    6 RMS gradient =   0.10E-05 energy =     -21651.5657733517
  outer SCF loop converged in   6 iterations or  160 steps


 ENERGY| Total FORCE_EVAL ( QS ) energy [a.u.]:           -21651.565840085251693

 --------  Informations at step =     0 ------------
  Optimization Method        =                 BFGS
  Total Energy               =    -21651.5658400853
  Used time                  =              202.567
 ---------------------------------------------------

 --------------------------
 OPTIMIZATION STEP:      1
 --------------------------

  Step is scaled; Scaling factor =  0.45471

 Number of electrons:                                                       3254
 Number of occupied orbitals:                                               1627
 Number of molecular orbitals:                                              1627

 Number of orbital functions:                                               4736
 Number of independent orbital functions:                                   4736

 Extrapolation method: ASPC


 SCF WAVEFUNCTION OPTIMIZATION

  ----------------------------------- OT ---------------------------------------
  Minimizer      : DIIS                : direct inversion
                                         in the iterative subspace
                                         using   7 DIIS vectors
                                         safer DIIS on
  Preconditioner : FULL_KINETIC        : inversion of T + eS
  Precond_solver : DEFAULT
  stepsize       :    0.15000000                  energy_gap     :    0.20000000
  eps_taylor     :   0.10000E-15                  max_taylor     :             4
  ----------------------------------- OT ---------------------------------------

  Step     Update method      Time    Convergence         Total energy    Change
  ------------------------------------------------------------------------------
     1 OT DIIS     0.15E+00    1.1     0.00005120    -21651.5857006628 -2.17E+04
     2 OT DIIS     0.15E+00    1.2     0.00003110    -21651.5878061563 -2.11E-03
     3 OT DIIS     0.15E+00    1.2     0.00002618    -21651.5886225521 -8.16E-04
     4 OT DIIS     0.15E+00    1.2     0.00002101    -21651.5891827871 -5.60E-04
     5 OT DIIS     0.15E+00    1.2     0.00001451    -21651.5895439416 -3.61E-04
     6 OT DIIS     0.15E+00    1.2     0.00001186    -21651.5898184935 -2.75E-04
     7 OT DIIS     0.15E+00    1.2     0.00000908    -21651.5899858270 -1.67E-04
     8 OT DIIS     0.15E+00    1.2     0.00000775    -21651.5901666122 -1.81E-04
     9 OT DIIS     0.15E+00    1.2     0.00000645    -21651.5902769979 -1.10E-04
    10 OT DIIS     0.15E+00    1.2     0.00000566    -21651.5903816696 -1.05E-04
    11 OT DIIS     0.15E+00    1.2     0.00000515    -21651.5904555554 -7.39E-05
    12 OT DIIS     0.15E+00    1.2     0.00000459    -21651.5905395376 -8.40E-05
    13 OT DIIS     0.15E+00    1.2     0.00000417    -21651.5905993806 -5.98E-05
    14 OT DIIS     0.15E+00    1.2     0.00000386    -21651.5906523167 -5.29E-05
    15 OT DIIS     0.15E+00    1.2     0.00000363    -21651.5906964523 -4.41E-05
    16 OT DIIS     0.15E+00    1.2     0.00000336    -21651.5907422781 -4.58E-05
    17 OT DIIS     0.15E+00    1.2     0.00000310    -21651.5907824637 -4.02E-05
    18 OT DIIS     0.15E+00    1.2     0.00000293    -21651.5908160463 -3.36E-05
    19 OT DIIS     0.15E+00    1.2     0.00000278    -21651.5908461534 -3.01E-05
    20 OT DIIS     0.15E+00    1.2     0.00000262    -21651.5908744509 -2.83E-05
    21 OT DIIS     0.15E+00    1.2     0.00000249    -21651.5909023826 -2.79E-05
    22 OT DIIS     0.15E+00    1.2     0.00000239    -21651.5909254460 -2.31E-05
    23 OT DIIS     0.15E+00    1.2     0.00000229    -21651.5909489179 -2.35E-05
    24 OT DIIS     0.15E+00    1.2     0.00000222    -21651.5909694759 -2.06E-05
    25 OT DIIS     0.15E+00    1.2     0.00000214    -21651.5909887582 -1.93E-05
    26 OT DIIS     0.15E+00    1.2     0.00000206    -21651.5910071283 -1.84E-05
    27 OT DIIS     0.15E+00    1.2     0.00000201    -21651.5910246807 -1.76E-05
    28 OT DIIS     0.15E+00    1.2     0.00000193    -21651.5910440546 -1.94E-05
    29 OT DIIS     0.15E+00    1.2     0.00000187    -21651.5910622736 -1.82E-05
    30 OT DIIS     0.15E+00    1.2     0.00000182    -21651.5910810088 -1.87E-05

  Leaving inner SCF loop after reaching    30 steps.


  Electronic density on regular grids:      -3253.9999999964        0.0000000036
  Core density on regular grids:             3253.9999999998       -0.0000000002
  Total charge density on r-space grids:        0.0000000033
  Total charge density g-space grids:           0.0000000033

  Overlap energy of the core charge distribution:               0.00000147582608
  Self energy of the core charge distribution:             -32938.66937211190088
  Core Hamiltonian energy:                                   7324.43355587726546
  Hartree energy:                                            6080.67475438554447
  Exchange-correlation energy:                              -2114.03546810089574
  Dispersion energy:                                           -3.99455253467545

  Total energy:                                            -21651.59108100883532

  outer SCF iter =    1 RMS gradient =   0.18E-05 energy =     -21651.5910810088

  ----------------------------------- OT ---------------------------------------
  Minimizer      : DIIS                : direct inversion
                                         in the iterative subspace
                                         using   7 DIIS vectors
                                         safer DIIS on
  Preconditioner : FULL_KINETIC        : inversion of T + eS
  Precond_solver : DEFAULT
  stepsize       :    0.15000000                  energy_gap     :    0.20000000
  eps_taylor     :   0.10000E-15                  max_taylor     :             4
  ----------------------------------- OT ---------------------------------------

  Step     Update method      Time    Convergence         Total energy    Change
  ------------------------------------------------------------------------------
     1 OT DIIS     0.15E+00    2.7     0.00000177    -21651.5910990700 -1.81E-05
     2 OT DIIS     0.15E+00    1.2     0.00000189    -21651.5911023064 -3.24E-06
     3 OT DIIS     0.15E+00    1.2     0.00000168    -21651.5911036427 -1.34E-06
     4 OT DIIS     0.15E+00    1.2     0.00000167    -21651.5911093496 -5.71E-06
     5 OT DIIS     0.15E+00    1.2     0.00000160    -21651.5911265375 -1.72E-05
     6 OT DIIS     0.15E+00    1.2     0.00000157    -21651.5911323200 -5.78E-06
     7 OT DIIS     0.15E+00    1.2     0.00000155    -21651.5911550739 -2.28E-05
     8 OT DIIS     0.15E+00    1.2     0.00000147    -21651.5911910753 -3.60E-05
     9 OT DIIS     0.15E+00    1.2     0.00000145    -21651.5912089303 -1.79E-05
    10 OT DIIS     0.15E+00    1.2     0.00000140    -21651.5912277933 -1.89E-05
    11 OT DIIS     0.15E+00    1.2     0.00000136    -21651.5912717584 -4.40E-05
    12 OT DIIS     0.15E+00    1.2     0.00000125    -21651.5913179517 -4.62E-05
    13 OT DIIS     0.15E+00    1.2     0.00000122    -21651.5913325506 -1.46E-05
    14 OT DIIS     0.15E+00    1.2     0.00000118    -21651.5913441905 -1.16E-05
    15 OT DIIS     0.15E+00    1.2     0.00000117    -21651.5913548356 -1.06E-05
    16 OT DIIS     0.15E+00    1.2     0.00000113    -21651.5913699627 -1.51E-05
    17 OT DIIS     0.15E+00    1.2     0.00000111    -21651.5913767496 -6.79E-06
    18 OT DIIS     0.15E+00    1.2     0.00000109    -21651.5913816334 -4.88E-06
    19 OT DIIS     0.15E+00    1.2     0.00000108    -21651.5913852996 -3.67E-06
    20 OT DIIS     0.15E+00    1.2     0.00000107    -21651.5913893117 -4.01E-06
    21 OT DIIS     0.15E+00    1.2     0.00000106    -21651.5913921516 -2.84E-06
    22 OT DIIS     0.15E+00    1.2     0.00000106    -21651.5913940405 -1.89E-06
    23 OT DIIS     0.15E+00    1.2     0.00000105    -21651.5913963401 -2.30E-06
    24 OT DIIS     0.15E+00    1.2     0.00000105    -21651.5913994528 -3.11E-06
    25 OT DIIS     0.15E+00    1.2     0.00000104    -21651.5914020449 -2.59E-06
    26 OT DIIS     0.15E+00    1.2     0.00000104    -21651.5914060922 -4.05E-06
    27 OT DIIS     0.15E+00    1.2     0.00000103    -21651.5914153143 -9.22E-06
    28 OT DIIS     0.15E+00    1.2     0.00000102    -21651.5914229844 -7.67E-06
    29 OT DIIS     0.15E+00    1.2     0.00000102    -21651.5914280840 -5.10E-06
    30 OT DIIS     0.15E+00    1.2     0.00000102    -21651.5914331746 -5.09E-06

  Leaving inner SCF loop after reaching    30 steps.


  Electronic density on regular grids:      -3253.9999999964        0.0000000036
  Core density on regular grids:             3253.9999999998       -0.0000000002
  Total charge density on r-space grids:        0.0000000034
  Total charge density g-space grids:           0.0000000034

  Overlap energy of the core charge distribution:               0.00000147582608
  Self energy of the core charge distribution:             -32938.66937211190088
  Core Hamiltonian energy:                                   7324.42777057804233
  Hartree energy:                                            6080.67882927922074
  Exchange-correlation energy:                              -2114.03410986107883
  Dispersion energy:                                           -3.99455253467545

  Total energy:                                            -21651.59143317456983

  outer SCF iter =    2 RMS gradient =   0.10E-05 energy =     -21651.5914331746

  ----------------------------------- OT ---------------------------------------
  Minimizer      : DIIS                : direct inversion
                                         in the iterative subspace
                                         using   7 DIIS vectors
                                         safer DIIS on
  Preconditioner : FULL_KINETIC        : inversion of T + eS
  Precond_solver : DEFAULT
  stepsize       :    0.15000000                  energy_gap     :    0.20000000
  eps_taylor     :   0.10000E-15                  max_taylor     :             4
  ----------------------------------- OT ---------------------------------------

  Step     Update method      Time    Convergence         Total energy    Change
  ------------------------------------------------------------------------------
     1 OT DIIS     0.15E+00    2.7     0.00000101    -21651.5914455515 -1.24E-05
     2 OT DIIS     0.15E+00    1.2     0.00000104    -21651.5914466843 -1.13E-06
     3 OT DIIS     0.15E+00    1.2     0.00000099    -21651.5914470906 -4.06E-07

  *** SCF run converged in     3 steps ***


  Electronic density on regular grids:      -3253.9999999964        0.0000000036
  Core density on regular grids:             3253.9999999998       -0.0000000002
  Total charge density on r-space grids:        0.0000000034
  Total charge density g-space grids:           0.0000000034

  Overlap energy of the core charge distribution:               0.00000147582608
  Self energy of the core charge distribution:             -32938.66937211190088
  Core Hamiltonian energy:                                   7324.42734331319480
  Hartree energy:                                            6080.67913464762751
  Exchange-correlation energy:                              -2114.03400188063642
  Dispersion energy:                                           -3.99455253467545

  Total energy:                                            -21651.59144709055909

  outer SCF iter =    3 RMS gradient =   0.99E-06 energy =     -21651.5914470906
  outer SCF loop converged in   3 iterations or   63 steps


 ENERGY| Total FORCE_EVAL ( QS ) energy [a.u.]:           -21651.591448903167475

 --------  Informations at step =     1 ------------
  Optimization Method        =                 BFGS
  Total Energy               =    -21651.5914489032
  Real energy change         =        -0.0256088179
  Predicted change in energy =        -0.0254104287
  Scaling factor             =         0.4547144680
  Step size                  =         0.1000000000
  Trust radius               =         0.1000000000
  Decrease in energy         =                  YES
  Used time                  =               81.030

  Convergence check :
  Max. step size             =         0.1000000000
  Conv. limit for step size  =         0.0200000000
  Convergence in step size   =                   NO
  RMS step size              =         0.0134597183
  Conv. limit for RMS step   =         0.0200000000
  Convergence in RMS step    =                  YES
  Max. gradient              =         0.0326231076
  Conv. limit for gradients  =         0.0030000000
  Conv. for gradients        =                   NO
  RMS gradient               =         0.0032449568
  Conv. limit for RMS grad.  =         0.0010000000
  Conv. for gradients        =                   NO
 ---------------------------------------------------
 Estimated peak process memory after this step [MiB]                         346

 --------------------------
 OPTIMIZATION STEP:      2
 --------------------------

  Step is scaled; Scaling factor =  0.52434

 Number of electrons:                                                       3254
 Number of occupied orbitals:                                               1627
 Number of molecular orbitals:                                              1627

 Number of orbital functions:                                               4736
 Number of independent orbital functions:                                   4736

 Extrapolation method: ASPC


 SCF WAVEFUNCTION OPTIMIZATION

  ----------------------------------- OT ---------------------------------------
  Minimizer      : DIIS                : direct inversion
                                         in the iterative subspace
                                         using   7 DIIS vectors
                                         safer DIIS on
  Preconditioner : FULL_KINETIC        : inversion of T + eS
  Precond_solver : DEFAULT
  stepsize       :    0.15000000                  energy_gap     :    0.20000000
  eps_taylor     :   0.10000E-15                  max_taylor     :             4
  ----------------------------------- OT ---------------------------------------

  Step     Update method      Time    Convergence         Total energy    Change
  ------------------------------------------------------------------------------
     1 OT DIIS     0.15E+00    1.0     0.00002576    -21651.6028070105 -2.17E+04
     2 OT DIIS     0.15E+00    1.2     0.00001635    -21651.6033392404 -5.32E-04
     3 OT DIIS     0.15E+00    1.2     0.00001430    -21651.6035485320 -2.09E-04
     4 OT DIIS     0.15E+00    1.2     0.00001163    -21651.6037068620 -1.58E-04
     5 OT DIIS     0.15E+00    1.2     0.00000772    -21651.6038180478 -1.11E-04
     6 OT DIIS     0.15E+00    1.2     0.00000635    -21651.6038931106 -7.51E-05
     7 OT DIIS     0.15E+00    1.2     0.00000481    -21651.6039440726 -5.10E-05
     8 OT DIIS     0.15E+00    1.2     0.00000414    -21651.6039951210 -5.10E-05
     9 OT DIIS     0.15E+00    1.2     0.00000341    -21651.6040289914 -3.39E-05
    10 OT DIIS     0.15E+00    1.2     0.00000304    -21651.6040573276 -2.83E-05
    11 OT DIIS     0.15E+00    1.2     0.00000276    -21651.6040783128 -2.10E-05
    12 OT DIIS     0.15E+00    1.2     0.00000248    -21651.6041023647 -2.41E-05
    13 OT DIIS     0.15E+00    1.2     0.00000225    -21651.6041194239 -1.71E-05
    14 OT DIIS     0.15E+00    1.2     0.00000210    -21651.6041336075 -1.42E-05
    15 OT DIIS     0.15E+00    1.2     0.00000197    -21651.6041458523 -1.22E-05
    16 OT DIIS     0.15E+00    1.2     0.00000183    -21651.6041586942 -1.28E-05
    17 OT DIIS     0.15E+00    1.2     0.00000171    -21651.6041703136 -1.16E-05
    18 OT DIIS     0.15E+00    1.2     0.00000161    -21651.6041798036 -9.49E-06
    19 OT DIIS     0.15E+00    1.2     0.00000153    -21651.6041889952 -9.19E-06
    20 OT DIIS     0.15E+00    1.2     0.00000145    -21651.6041977268 -8.73E-06
    21 OT DIIS     0.15E+00    1.2     0.00000141    -21651.6042058735 -8.15E-06
    22 OT DIIS     0.15E+00    1.2     0.00000135    -21651.6042131875 -7.31E-06
    23 OT DIIS     0.15E+00    1.2     0.00000132    -21651.6042198351 -6.65E-06
    24 OT DIIS     0.15E+00    1.2     0.00000126    -21651.6042272014 -7.37E-06
    25 OT DIIS     0.15E+00    1.2     0.00000123    -21651.6042335526 -6.35E-06
    26 OT DIIS     0.15E+00    1.2     0.00000119    -21651.6042403591 -6.81E-06
    27 OT DIIS     0.15E+00    1.2     0.00000115    -21651.6042467403 -6.38E-06
    28 OT DIIS     0.15E+00    1.2     0.00000111    -21651.6042537065 -6.97E-06
    29 OT DIIS     0.15E+00    1.2     0.00000109    -21651.6042607065 -7.00E-06
    30 OT DIIS     0.15E+00    1.2     0.00000107    -21651.6042666827 -5.98E-06

  Leaving inner SCF loop after reaching    30 steps.


  Electronic density on regular grids:      -3254.0000000016       -0.0000000016
  Core density on regular grids:             3254.0000000001        0.0000000001
  Total charge density on r-space grids:       -0.0000000015
  Total charge density g-space grids:          -0.0000000015

  Overlap energy of the core charge distribution:               0.00000130054364
  Self energy of the core charge distribution:             -32938.66937211190088
  Core Hamiltonian energy:                                   7324.09881377522652
  Hartree energy:                                            6080.88259536904843
  Exchange-correlation energy:                              -2113.92454303660361
  Dispersion energy:                                           -3.99176197902701

  Total energy:                                            -21651.60426668271612

  outer SCF iter =    1 RMS gradient =   0.11E-05 energy =     -21651.6042666827

  ----------------------------------- OT ---------------------------------------
  Minimizer      : DIIS                : direct inversion
                                         in the iterative subspace
                                         using   7 DIIS vectors
                                         safer DIIS on
  Preconditioner : FULL_KINETIC        : inversion of T + eS
  Precond_solver : DEFAULT
  stepsize       :    0.15000000                  energy_gap     :    0.20000000
  eps_taylor     :   0.10000E-15                  max_taylor     :             4
  ----------------------------------- OT ---------------------------------------

  Step     Update method      Time    Convergence         Total energy    Change
  ------------------------------------------------------------------------------
     1 OT DIIS     0.15E+00    2.7     0.00000105    -21651.6042729425 -6.26E-06
     2 OT DIIS     0.15E+00    1.2     0.00000113    -21651.6042740962 -1.15E-06
     3 OT DIIS     0.15E+00    1.2     0.00000101    -21651.6042745473 -4.51E-07
     4 OT DIIS     0.15E+00    1.2     0.00000100    -21651.6042765623 -2.02E-06
     5 OT DIIS     0.15E+00    1.2     0.00000097    -21651.6042838235 -7.26E-06

  *** SCF run converged in     5 steps ***


  Electronic density on regular grids:      -3254.0000000016       -0.0000000016
  Core density on regular grids:             3254.0000000001        0.0000000001
  Total charge density on r-space grids:       -0.0000000015
  Total charge density g-space grids:          -0.0000000015

  Overlap energy of the core charge distribution:               0.00000130054364
  Self energy of the core charge distribution:             -32938.66937211190088
  Core Hamiltonian energy:                                   7324.09829517868457
  Hartree energy:                                            6080.88297657784096
  Exchange-correlation energy:                              -2113.92442278964290
  Dispersion energy:                                           -3.99176197902701

  Total energy:                                            -21651.60428382350074

  outer SCF iter =    2 RMS gradient =   0.97E-06 energy =     -21651.6042838235
  outer SCF loop converged in   2 iterations or   35 steps


 ENERGY| Total FORCE_EVAL ( QS ) energy [a.u.]:           -21651.604285873258050

 --------  Informations at step =     2 ------------
  Optimization Method        =                 BFGS
  Total Energy               =    -21651.6042858733
  Real energy change         =        -0.0128369701
  Predicted change in energy =        -0.0115373575
  Scaling factor             =         0.5243378615
  Step size                  =         0.1000000000
  Trust radius               =         0.1000000000
  Decrease in energy         =                  YES
  Used time                  =               47.635

  Convergence check :
  Max. step size             =         0.1000000000
  Conv. limit for step size  =         0.0200000000
  Convergence in step size   =                   NO
  RMS step size              =         0.0121836446
  Conv. limit for RMS step   =         0.0200000000
  Convergence in RMS step    =                  YES
  Max. gradient              =         0.0204941079
  Conv. limit for gradients  =         0.0030000000
  Conv. for gradients        =                   NO
  RMS gradient               =         0.0017870377
  Conv. limit for RMS grad.  =         0.0010000000
  Conv. for gradients        =                   NO
 ---------------------------------------------------
 Estimated peak process memory after this step [MiB]                         348

 --------------------------
 OPTIMIZATION STEP:      3
 --------------------------

  Step is scaled; Scaling factor =  0.39115

 Number of electrons:                                                       3254
 Number of occupied orbitals:                                               1627
 Number of molecular orbitals:                                              1627

 Number of orbital functions:                                               4736
 Number of independent orbital functions:                                   4736

 Extrapolation method: ASPC


 SCF WAVEFUNCTION OPTIMIZATION

  ----------------------------------- OT ---------------------------------------
  Minimizer      : DIIS                : direct inversion
                                         in the iterative subspace
                                         using   7 DIIS vectors
                                         safer DIIS on
  Preconditioner : FULL_KINETIC        : inversion of T + eS
  Precond_solver : DEFAULT
  stepsize       :    0.15000000                  energy_gap     :    0.20000000
  eps_taylor     :   0.10000E-15                  max_taylor     :             4
  ----------------------------------- OT ---------------------------------------

  Step     Update method      Time    Convergence         Total energy    Change
  ------------------------------------------------------------------------------
     1 OT DIIS     0.15E+00    1.0     0.00001307    -21651.6103720146 -2.17E+04
     2 OT DIIS     0.15E+00    1.2     0.00000851    -21651.6105115664 -1.40E-04
     3 OT DIIS     0.15E+00    1.2     0.00000739    -21651.6105692037 -5.76E-05
     4 OT DIIS     0.15E+00    1.2     0.00000609    -21651.6106145900 -4.54E-05
     5 OT DIIS     0.15E+00    1.2     0.00000400    -21651.6106433797 -2.88E-05
     6 OT DIIS     0.15E+00    1.2     0.00000328    -21651.6106626393 -1.93E-05
     7 OT DIIS     0.15E+00    1.2     0.00000265    -21651.6106778887 -1.52E-05
     8 OT DIIS     0.15E+00    1.2     0.00000234    -21651.6106940400 -1.62E-05
     9 OT DIIS     0.15E+00    1.3     0.00000199    -21651.6107052586 -1.12E-05
    10 OT DIIS     0.15E+00    1.2     0.00000183    -21651.6107152228 -9.96E-06
    11 OT DIIS     0.15E+00    1.2     0.00000171    -21651.6107236237 -8.40E-06
    12 OT DIIS     0.15E+00    1.2     0.00000158    -21651.6107336433 -1.00E-05
    13 OT DIIS     0.15E+00    1.2     0.00000148    -21651.6107409555 -7.31E-06
    14 OT DIIS     0.15E+00    1.2     0.00000142    -21651.6107474591 -6.50E-06
    15 OT DIIS     0.15E+00    1.2     0.00000136    -21651.6107536509 -6.19E-06
    16 OT DIIS     0.15E+00    1.2     0.00000129    -21651.6107607717 -7.12E-06
    17 OT DIIS     0.15E+00    1.2     0.00000124    -21651.6107671553 -6.38E-06
    18 OT DIIS     0.15E+00    1.2     0.00000120    -21651.6107728877 -5.73E-06
    19 OT DIIS     0.15E+00    1.2     0.00000115    -21651.6107789789 -6.09E-06
    20 OT DIIS     0.15E+00    1.2     0.00000112    -21651.6107849159 -5.94E-06
    21 OT DIIS     0.15E+00    1.2     0.00000110    -21651.6107904062 -5.49E-06
    22 OT DIIS     0.15E+00    1.2     0.00000107    -21651.6107955765 -5.17E-06
    23 OT DIIS     0.15E+00    1.2     0.00000105    -21651.6108006116 -5.04E-06
    24 OT DIIS     0.15E+00    1.2     0.00000102    -21651.6108064649 -5.85E-06
    25 OT DIIS     0.15E+00    1.2     0.00000101    -21651.6108117660 -5.30E-06
    26 OT DIIS     0.15E+00    1.2     0.00000098    -21651.6108173859 -5.62E-06

  *** SCF run converged in    26 steps ***


  Electronic density on regular grids:      -3253.9999999997        0.0000000003
  Core density on regular grids:             3254.0000000000       -0.0000000000
  Total charge density on r-space grids:        0.0000000003
  Total charge density g-space grids:           0.0000000003

  Overlap energy of the core charge distribution:               0.00000122674629
  Self energy of the core charge distribution:             -32938.66937211190088
  Core Hamiltonian energy:                                   7323.90796632193997
  Hartree energy:                                            6081.00160073604911
  Exchange-correlation energy:                              -2113.86086296664553
  Dispersion energy:                                           -3.99015059207221

  Total energy:                                            -21651.61081738588109

  outer SCF iter =    1 RMS gradient =   0.98E-06 energy =     -21651.6108173859
  outer SCF loop converged in   1 iterations or   26 steps


 ENERGY| Total FORCE_EVAL ( QS ) energy [a.u.]:           -21651.610823232760595

 --------  Informations at step =     3 ------------
  Optimization Method        =                 BFGS
  Total Energy               =    -21651.6108232328
  Real energy change         =        -0.0065373595
  Predicted change in energy =        -0.0057993141
  Scaling factor             =         0.3911478047
  Step size                  =         0.1000000000
  Trust radius               =         0.1000000000
  Decrease in energy         =                  YES
  Used time                  =               36.706

  Convergence check :
  Max. step size             =         0.1000000000
  Conv. limit for step size  =         0.0200000000
  Convergence in step size   =                   NO
  RMS step size              =         0.0098026112
  Conv. limit for RMS step   =         0.0200000000
  Convergence in RMS step    =                  YES
  Max. gradient              =         0.0138709167
  Conv. limit for gradients  =         0.0030000000
  Conv. for gradients        =                   NO
  RMS gradient               =         0.0011070361
  Conv. limit for RMS grad.  =         0.0010000000
  Conv. for gradients        =                   NO
 ---------------------------------------------------
 Estimated peak process memory after this step [MiB]                         350

 --------------------------
 OPTIMIZATION STEP:      4
 --------------------------

  Step is scaled; Scaling factor =  0.28863

 Number of electrons:                                                       3254
 Number of occupied orbitals:                                               1627
 Number of molecular orbitals:                                              1627

 Number of orbital functions:                                               4736
 Number of independent orbital functions:                                   4736

 Extrapolation method: ASPC


 SCF WAVEFUNCTION OPTIMIZATION

  ----------------------------------- OT ---------------------------------------
  Minimizer      : DIIS                : direct inversion
                                         in the iterative subspace
                                         using   7 DIIS vectors
                                         safer DIIS on
  Preconditioner : FULL_KINETIC        : inversion of T + eS
  Precond_solver : DEFAULT
  stepsize       :    0.15000000                  energy_gap     :    0.20000000
  eps_taylor     :   0.10000E-15                  max_taylor     :             4
  ----------------------------------- OT ---------------------------------------

  Step     Update method      Time    Convergence         Total energy    Change
  ------------------------------------------------------------------------------
     1 OT DIIS     0.15E+00    1.0     0.00000772    -21651.6152411138 -2.17E+04
     2 OT DIIS     0.15E+00    1.2     0.00000508    -21651.6152898782 -4.88E-05
     3 OT DIIS     0.15E+00    1.2     0.00000479    -21651.6153093650 -1.95E-05
     4 OT DIIS     0.15E+00    1.2     0.00000349    -21651.6153253953 -1.60E-05
     5 OT DIIS     0.15E+00    1.2     0.00000252    -21651.6153376786 -1.23E-05
     6 OT DIIS     0.15E+00    1.2     0.00000217    -21651.6153462659 -8.59E-06
     7 OT DIIS     0.15E+00    1.2     0.00000188    -21651.6153524339 -6.17E-06
     8 OT DIIS     0.15E+00    1.2     0.00000169    -21651.6153599806 -7.55E-06
     9 OT DIIS     0.15E+00    1.2     0.00000152    -21651.6153663513 -6.37E-06
    10 OT DIIS     0.15E+00    1.2     0.00000144    -21651.6153724454 -6.09E-06
    11 OT DIIS     0.15E+00    1.2     0.00000137    -21651.6153784968 -6.05E-06
    12 OT DIIS     0.15E+00    1.2     0.00000129    -21651.6153866161 -8.12E-06
    13 OT DIIS     0.15E+00    1.2     0.00000123    -21651.6153929731 -6.36E-06
    14 OT DIIS     0.15E+00    1.2     0.00000119    -21651.6153983427 -5.37E-06
    15 OT DIIS     0.15E+00    1.2     0.00000115    -21651.6154033000 -4.96E-06
    16 OT DIIS     0.15E+00    1.2     0.00000111    -21651.6154089137 -5.61E-06
    17 OT DIIS     0.15E+00    1.2     0.00000108    -21651.6154137794 -4.87E-06
    18 OT DIIS     0.15E+00    1.2     0.00000106    -21651.6154182203 -4.44E-06
    19 OT DIIS     0.15E+00    1.2     0.00000103    -21651.6154228515 -4.63E-06
    20 OT DIIS     0.15E+00    1.2     0.00000101    -21651.6154277583 -4.91E-06
    21 OT DIIS     0.15E+00    1.2     0.00000099    -21651.6154327617 -5.00E-06

  *** SCF run converged in    21 steps ***


  Electronic density on regular grids:      -3253.9999999943        0.0000000057
  Core density on regular grids:             3253.9999999996       -0.0000000004
  Total charge density on r-space grids:        0.0000000054
  Total charge density g-space grids:           0.0000000054

  Overlap energy of the core charge distribution:               0.00000118701865
  Self energy of the core charge distribution:             -32938.66937211190088
  Core Hamiltonian energy:                                   7323.75740087727354
  Hartree energy:                                            6081.09563135382632
  Exchange-correlation energy:                              -2113.81028200316541
  Dispersion energy:                                           -3.98881206477473

  Total energy:                                            -21651.61543276171869

  outer SCF iter =    1 RMS gradient =   0.99E-06 energy =     -21651.6154327617
  outer SCF loop converged in   1 iterations or   21 steps


 ENERGY| Total FORCE_EVAL ( QS ) energy [a.u.]:           -21651.615437648542866

 --------  Informations at step =     4 ------------
  Optimization Method        =                 BFGS
  Total Energy               =    -21651.6154376485
  Real energy change         =        -0.0046144158
  Predicted change in energy =        -0.0042316856
  Scaling factor             =         0.2886254633
  Step size                  =         0.1000000000
  Trust radius               =         0.1000000000
  Decrease in energy         =                  YES
  Used time                  =               30.595

  Convergence check :
  Max. step size             =         0.1000000000
  Conv. limit for step size  =         0.0200000000
  Convergence in step size   =                   NO
  RMS step size              =         0.0095005631
  Conv. limit for RMS step   =         0.0200000000
  Convergence in RMS step    =                  YES
  Max. gradient              =         0.0098619475
  Conv. limit for gradients  =         0.0030000000
  Conv. for gradients        =                   NO
  RMS gradient               =         0.0008083331
  Conv. limit for RMS grad.  =         0.0010000000
  Conv. in RMS gradients     =                  YES
 ---------------------------------------------------
 Estimated peak process memory after this step [MiB]                         350

 --------------------------
 OPTIMIZATION STEP:      5
 --------------------------

  Step is scaled; Scaling factor =  0.20682

 Number of electrons:                                                       3254
 Number of occupied orbitals:                                               1627
 Number of molecular orbitals:                                              1627

 Number of orbital functions:                                               4736
 Number of independent orbital functions:                                   4736

 Extrapolation method: ASPC


 SCF WAVEFUNCTION OPTIMIZATION

  ----------------------------------- OT ---------------------------------------
  Minimizer      : DIIS                : direct inversion
                                         in the iterative subspace
                                         using   7 DIIS vectors
                                         safer DIIS on
  Preconditioner : FULL_KINETIC        : inversion of T + eS
  Precond_solver : DEFAULT
  stepsize       :    0.15000000                  energy_gap     :    0.20000000
  eps_taylor     :   0.10000E-15                  max_taylor     :             4
  ----------------------------------- OT ---------------------------------------

  Step     Update method      Time    Convergence         Total energy    Change
  ------------------------------------------------------------------------------
     1 OT DIIS     0.15E+00    1.0     0.00000619    -21651.6189569835 -2.17E+04
     2 OT DIIS     0.15E+00    1.2     0.00000440    -21651.6189868725 -2.99E-05
     3 OT DIIS     0.15E+00    1.2     0.00000423    -21651.6189976003 -1.07E-05
     4 OT DIIS     0.15E+00    1.2     0.00000286    -21651.6190089064 -1.13E-05
     5 OT DIIS     0.15E+00    1.2     0.00000215    -21651.6190183015 -9.40E-06
     6 OT DIIS     0.15E+00    1.2     0.00000195    -21651.6190241408 -5.84E-06
     7 OT DIIS     0.15E+00    1.2     0.00000166    -21651.6190290412 -4.90E-06
     8 OT DIIS     0.15E+00    1.2     0.00000152    -21651.6190351058 -6.06E-06
     9 OT DIIS     0.15E+00    1.2     0.00000142    -21651.6190411818 -6.08E-06
    10 OT DIIS     0.15E+00    1.2     0.00000137    -21651.6190465878 -5.41E-06
    11 OT DIIS     0.15E+00    1.2     0.00000129    -21651.6190529050 -6.32E-06
    12 OT DIIS     0.15E+00    1.2     0.00000124    -21651.6190608445 -7.94E-06
    13 OT DIIS     0.15E+00    1.2     0.00000119    -21651.6190672203 -6.38E-06
    14 OT DIIS     0.15E+00    1.2     0.00000116    -21651.6190722917 -5.07E-06
    15 OT DIIS     0.15E+00    1.2     0.00000113    -21651.6190770330 -4.74E-06
    16 OT DIIS     0.15E+00    1.2     0.00000111    -21651.6190817907 -4.76E-06
    17 OT DIIS     0.15E+00    1.2     0.00000108    -21651.6190865082 -4.72E-06
    18 OT DIIS     0.15E+00    1.2     0.00000106    -21651.6190912202 -4.71E-06
    19 OT DIIS     0.15E+00    1.2     0.00000105    -21651.6190958986 -4.68E-06
    20 OT DIIS     0.15E+00    1.2     0.00000103    -21651.6191013088 -5.41E-06
    21 OT DIIS     0.15E+00    1.2     0.00000102    -21651.6191073462 -6.04E-06
    22 OT DIIS     0.15E+00    1.2     0.00000101    -21651.6191138131 -6.47E-06
    23 OT DIIS     0.15E+00    1.2     0.00000099    -21651.6191205412 -6.73E-06

  *** SCF run converged in    23 steps ***


  Electronic density on regular grids:      -3254.0000000045       -0.0000000045
  Core density on regular grids:             3254.0000000002        0.0000000002
  Total charge density on r-space grids:       -0.0000000043
  Total charge density g-space grids:          -0.0000000043

  Overlap energy of the core charge distribution:               0.00000116397275
  Self energy of the core charge distribution:             -32938.66937211190088
  Core Hamiltonian energy:                                   7323.64310089123683
  Hartree energy:                                            6081.16655005835673
  Exchange-correlation energy:                              -2113.77165158621301
  Dispersion energy:                                           -3.98774895665463

  Total energy:                                            -21651.61912054119966

  outer SCF iter =    1 RMS gradient =   0.99E-06 energy =     -21651.6191205412
  outer SCF loop converged in   1 iterations or   23 steps


 ENERGY| Total FORCE_EVAL ( QS ) energy [a.u.]:           -21651.619128854767041

 --------  Informations at step =     5 ------------
  Optimization Method        =                 BFGS
  Total Energy               =    -21651.6191288548
  Real energy change         =        -0.0036912062
  Predicted change in energy =        -0.0034151209
  Scaling factor             =         0.2068212219
  Step size                  =         0.1000000000
  Trust radius               =         0.1000000000
  Decrease in energy         =                  YES
  Used time                  =               33.066

  Convergence check :
  Max. step size             =         0.1000000000
  Conv. limit for step size  =         0.0200000000
  Convergence in step size   =                   NO
  RMS step size              =         0.0091035285
  Conv. limit for RMS step   =         0.0200000000
  Convergence in RMS step    =                  YES
  Max. gradient              =         0.0095220258
  Conv. limit for gradients  =         0.0030000000
  Conv. for gradients        =                   NO
  RMS gradient               =         0.0007402809
  Conv. limit for RMS grad.  =         0.0010000000
  Conv. in RMS gradients     =                  YES
 ---------------------------------------------------
 Estimated peak process memory after this step [MiB]                         351

 --------------------------
 OPTIMIZATION STEP:      6
 --------------------------

  Step is scaled; Scaling factor =  0.13830

 Number of electrons:                                                       3254
 Number of occupied orbitals:                                               1627
 Number of molecular orbitals:                                              1627

 Number of orbital functions:                                               4736
 Number of independent orbital functions:                                   4736

 Extrapolation method: ASPC


 SCF WAVEFUNCTION OPTIMIZATION

  ----------------------------------- OT ---------------------------------------
  Minimizer      : DIIS                : direct inversion
                                         in the iterative subspace
                                         using   7 DIIS vectors
                                         safer DIIS on
  Preconditioner : FULL_KINETIC        : inversion of T + eS
  Precond_solver : DEFAULT
  stepsize       :    0.15000000                  energy_gap     :    0.20000000
  eps_taylor     :   0.10000E-15                  max_taylor     :             4
  ----------------------------------- OT ---------------------------------------

  Step     Update method      Time    Convergence         Total energy    Change
  ------------------------------------------------------------------------------
     1 OT DIIS     0.15E+00    1.0     0.00000348    -21651.6221479804 -2.17E+04
     2 OT DIIS     0.15E+00    1.2     0.00000325    -21651.6221565773 -8.60E-06
     3 OT DIIS     0.15E+00    1.2     0.00000264    -21651.6221598334 -3.26E-06
     4 OT DIIS     0.15E+00    1.2     0.00000171    -21651.6221649590 -5.13E-06
     5 OT DIIS     0.15E+00    1.2     0.00000153    -21651.6221692240 -4.27E-06
     6 OT DIIS     0.15E+00    1.2     0.00000134    -21651.6221723349 -3.11E-06
     7 OT DIIS     0.15E+00    1.2     0.00000124    -21651.6221753694 -3.03E-06
     8 OT DIIS     0.15E+00    1.2     0.00000118    -21651.6221789990 -3.63E-06
     9 OT DIIS     0.15E+00    1.2     0.00000114    -21651.6221832215 -4.22E-06
    10 OT DIIS     0.15E+00    1.2     0.00000110    -21651.6221874502 -4.23E-06
    11 OT DIIS     0.15E+00    1.2     0.00000107    -21651.6221925751 -5.12E-06
    12 OT DIIS     0.15E+00    1.2     0.00000103    -21651.6221978262 -5.25E-06
    13 OT DIIS     0.15E+00    1.2     0.00000100    -21651.6222029568 -5.13E-06
    14 OT DIIS     0.15E+00    1.2     0.00000098    -21651.6222067054 -3.75E-06

  *** SCF run converged in    14 steps ***


  Electronic density on regular grids:      -3254.0000000004       -0.0000000004
  Core density on regular grids:             3254.0000000000        0.0000000000
  Total charge density on r-space grids:       -0.0000000004
  Total charge density g-space grids:          -0.0000000004

  Overlap energy of the core charge distribution:               0.00000114969102
  Self energy of the core charge distribution:             -32938.66937211190088
  Core Hamiltonian energy:                                   7323.55710429897408
  Hartree energy:                                            6081.21911925857967
  Exchange-correlation energy:                              -2113.74216042177568
  Dispersion energy:                                           -3.98689887898119

  Total energy:                                            -21651.62220670541137

  outer SCF iter =    1 RMS gradient =   0.98E-06 energy =     -21651.6222067054
  outer SCF loop converged in   1 iterations or   14 steps


 ENERGY| Total FORCE_EVAL ( QS ) energy [a.u.]:           -21651.622210614033975

 --------  Informations at step =     6 ------------
  Optimization Method        =                 BFGS
  Total Energy               =    -21651.6222106140
  Real energy change         =        -0.0030817593
  Predicted change in energy =        -0.0030478037
  Scaling factor             =         0.1382999002
  Step size                  =         0.1000000000
  Trust radius               =         0.1000000000
  Decrease in energy         =                  YES
  Used time                  =               22.171

  Convergence check :
  Max. step size             =         0.1000000000
  Conv. limit for step size  =         0.0200000000
  Convergence in step size   =                   NO
  RMS step size              =         0.0088754890
  Conv. limit for RMS step   =         0.0200000000
  Convergence in RMS step    =                  YES
  Max. gradient              =         0.0098992256
  Conv. limit for gradients  =         0.0030000000
  Conv. for gradients        =                   NO
  RMS gradient               =         0.0007743808
  Conv. limit for RMS grad.  =         0.0010000000
  Conv. in RMS gradients     =                  YES
 ---------------------------------------------------
 Estimated peak process memory after this step [MiB]                         352

 --------------------------
 OPTIMIZATION STEP:      7
 --------------------------

  Step is scaled; Scaling factor =  0.14933

 Number of electrons:                                                       3254
 Number of occupied orbitals:                                               1627
 Number of molecular orbitals:                                              1627

 Number of orbital functions:                                               4736
 Number of independent orbital functions:                                   4736

 Extrapolation method: ASPC


 SCF WAVEFUNCTION OPTIMIZATION

  ----------------------------------- OT ---------------------------------------
  Minimizer      : DIIS                : direct inversion
                                         in the iterative subspace
                                         using   7 DIIS vectors
                                         safer DIIS on
  Preconditioner : FULL_KINETIC        : inversion of T + eS
  Precond_solver : DEFAULT
  stepsize       :    0.15000000                  energy_gap     :    0.20000000
  eps_taylor     :   0.10000E-15                  max_taylor     :             4
  ----------------------------------- OT ---------------------------------------

  Step     Update method      Time    Convergence         Total energy    Change
  ------------------------------------------------------------------------------
     1 OT DIIS     0.15E+00    1.0     0.00000301    -21651.6248491187 -2.17E+04
     2 OT DIIS     0.15E+00    1.2     0.00000249    -21651.6248558869 -6.77E-06
     3 OT DIIS     0.15E+00    1.2     0.00000228    -21651.6248586048 -2.72E-06
     4 OT DIIS     0.15E+00    1.2     0.00000169    -21651.6248619895 -3.38E-06
     5 OT DIIS     0.15E+00    1.2     0.00000152    -21651.6248663458 -4.36E-06
     6 OT DIIS     0.15E+00    1.2     0.00000141    -21651.6248695354 -3.19E-06
     7 OT DIIS     0.15E+00    1.2     0.00000133    -21651.6248735870 -4.05E-06
[...]
 flops   312 x    96 x   286        4240647290880       0.0%    100.0%      0.0%
 flops   312 x    96 x   128        4443347091456       0.0%    100.0%      0.0%
 flops   312 x   128 x    96        4443347091456       0.0%    100.0%      0.0%
 flops   312 x    96 x   312        4626160680960       0.0%    100.0%      0.0%
 flops    96 x   128 x   291        5009277911040       0.0%    100.0%      0.0%
 flops   128 x    96 x   291        5009277911040       0.0%    100.0%      0.0%
 flops   286 x    96 x   291        5932828661760       0.0%    100.0%      0.0%
 flops   291 x    96 x   286        5932828661760       0.0%    100.0%      0.0%
 flops   291 x    96 x   128        6216413478912       0.0%    100.0%      0.0%
 flops   291 x   128 x    96        6216413478912       0.0%    100.0%      0.0%
 flops   291 x    96 x   312        6472176721920       0.0%    100.0%      0.0%
 flops   312 x    96 x   291        6472176721920       0.0%    100.0%      0.0%
 flops    26 x    26 x   128        6816540856320       0.0%    100.0%      0.0%
 flops   291 x    96 x   291        9054824163840       0.0%    100.0%      0.0%
 flops   299 x    96 x    96       10379381096448       0.0%    100.0%      0.0%
 flops    96 x    96 x   286       16000425492480       0.0%    100.0%      0.0%
 flops    96 x    96 x   312       17455009628160       0.0%    100.0%      0.0%
 flops    96 x    96 x    96       18489092603904       0.0%    100.0%      0.0%
 flops   286 x    96 x    96       19856207314944       0.0%    100.0%      0.0%
 flops   312 x    96 x    96       21661317070848       0.0%    100.0%      0.0%
 flops    96 x    96 x   291       24420229816320       0.0%    100.0%      0.0%
 flops   291 x    96 x    96       30305015709696       0.0%    100.0%      0.0%
 flops    26 x    26 x    96       33230636674560       0.0%    100.0%      0.0%
 flops    26 x    32 x    26      178723584000000       0.0%    100.0%      0.0%
 flops inhomo. stacks              26276790870720     100.0%      0.0%      0.0%
 flops total                       611.708071E+12       4.3%     95.7%      0.0%
 flops max/rank                      3.197217E+12       4.6%     95.4%      0.0%
 matmuls inhomo. stacks                   2908160     100.0%      0.0%      0.0%
 matmuls total                         5006239224       0.1%     99.9%      0.0%
 number of processed stacks             100696656       2.9%     97.1%      0.0%
 average stack size                                     1.0      51.2       0.0
 marketing flops                   657.189790E+12
 -------------------------------------------------------------------------------
 # multiplications                          19875
 max memory usage/rank             378.384384E+06
 # max total images/rank                        1
 # max 3D layers                                1
 # MPI messages exchanged               152640000
 MPI messages size (bytes):
  total size                        34.064216E+12
  min size                           0.000000E+00
  max size                         778.752000E+03
  average size                     223.167031E+03
 MPI breakdown and total messages size (bytes):
             size <=      128              609120                        0
       128 < size <=     8192                   0                        0
      8192 < size <=    32768               12960                336499920
     32768 < size <=   131072            57922560            4791515260320
    131072 < size <=  4194304            94095360           29266018037760
   4194304 < size <= 16777216                   0                        0
  16777216 < size                               0                        0
 -------------------------------------------------------------------------------
 -                                                                             -
 -                      DBCSR MESSAGE PASSING PERFORMANCE                      -
 -                                                                             -
 -------------------------------------------------------------------------------
 ROUTINE             CALLS      AVE VOLUME [Bytes]
 MP_Bcast              178                     12.
 MP_Allreduce       108339                      8.
 MP_Alltoall         65134                 102887.
 MP_ISend          1271784                 116450.
 MP_IRecv          1271784                 115597.
 -------------------------------------------------------------------------------

 -------------------------------------------------------------------------------
 -                                                                             -
 -                                DBM STATISTICS                               -
 -                                                                             -
 -------------------------------------------------------------------------------
    M  x    N  x    K                                          COUNT     PERCENT
 -------------------------------------------------------------------------------

 -------------------------------------------------------------------------------
 -                                                                             -
 -                                GRID STATISTICS                              -
 -                                                                             -
 -------------------------------------------------------------------------------
 LP    KERNEL             BACKEND                              COUNT     PERCENT
 6     collocate general  REF                              305730496      43.50%
 6     integrate general  REF                              296372625      42.17%
 4     collocate general  REF                               31708492       4.51%
 4     integrate general  REF                               30747285       4.38%
 5     integrate general  REF                               10047560       1.43%
 7     integrate general  REF                                9382979       1.34%
 5     collocate general  REF                                9372191       1.33%
 2     collocate general  REF                                1890888       0.27%
 2     integrate general  REF                                1831232       0.26%
 0     collocate general  REF                                1780736       0.25%
 1     integrate general  REF                                1732608       0.25%
 3     integrate general  REF                                1095921       0.16%
 3     collocate general  REF                                1071664       0.15%
 -------------------------------------------------------------------------------

 MEMORY| Estimated peak process memory [MiB]                                 361

 -------------------------------------------------------------------------------
 -                                                                             -
 -                         MESSAGE PASSING PERFORMANCE                         -
 -                                                                             -
 -------------------------------------------------------------------------------

 ROUTINE             CALLS      AVE VOLUME [Bytes]
 MP_Group                5
 MP_Bcast             7242                  97174.
 MP_Allreduce        17143                    625.
 MP_Sync             18871
 MP_Alltoall         38219              213503137.
 MP_SendRecv         36720                   2311.
 MP_ISendRecv      1793925                   6789.
 MP_Wait           1933813
 MP_comm_split          53
 MP_ISend           444240                 107521.
 MP_IRecv           444506                 107458.
 MP_Recv              2445                 952506.
 -------------------------------------------------------------------------------


 -------------------------------------------------------------------------------
 -                                                                             -
 -                           R E F E R E N C E S                               -
 -                                                                             -
 -------------------------------------------------------------------------------
 
 CP2K version 2022.1 (Development Version), the CP2K developers group (2022).
 CP2K is freely available from https://www.cp2k.org/ .

 Kuehne,Thomas D.; Iannuzzi,Marcella; Del Ben,Mauro;
 Rybkin,Vladimir V.; Seewald,Patrick; Stein,Frederick; Laino,Teodoro;
 Khaliullin,Rustam Z.; Schuett,Ole; Schiffmann,Florian; Golze,Dorothea;
 Wilhelm,Jan; Chulkov,Sergey; Bani-Hashemian,Mohammad Hossein;
 Weber,Valery; Borstnik,Urban; Taillefumier,Mathieu;
 Jakobovits,Alice Shoshana; Lazzaro,Alfio; Pabst,Hans; Mueller,Tiziano;
 Schade,Robert; Guidon,Manuel; Andermatt,Samuel; Holmberg,Nico;
 Schenter,Gregory K.; Hehn,Anna; Bussy,Augustin; Belleflamme,Fabian;
 Tabacchi,Gloria; Gloess,Andreas; Lass,Michael; Bethune,Iain;
 Mundy,Christopher J.; Plessl,Christian; Watkins,Matt;
 VandeVondele,Joost; Krack,Matthias; Hutter,Juerg. 
 The Journal of Chemical Physics, 152 (19), (2020). 
 CP2K: An electronic structure and molecular dynamics software package -
 Quickstep: Efficient and accurate electronic structure calculations.
 https://doi.org/10.1063/5.0007045

 Goerigk, Lars; Hansen, Andreas; Bauer, Christoph; Ehrlich, Stephan;
 Najibi, Asim; Grimme, Stefan. , 19 (48), (2017). 
 A look at the density functional theory zoo with the advanced GMTKN55 database
 for general main group thermochemistry, kinetics and noncovalent interactions.
 https://doi.org/10.1039/C7CP04913G

 Schuett, Ole; Messmer, Peter; Hutter, Juerg; VandeVondele, Joost. 
 Electronic Structure Calculations on Graphics Processing Units, John
 Wiley & Sons, Ltd, 173-190 (2016). 
 GPU-Accelerated Sparse Matrix-Matrix Multiplication for
 Linear Scaling Density Functional Theory.
 https://doi.org/10.1002/9781118670712.ch8

 Heinecke, A; Henry, G; Hutchinson, M; Pabst, H. 
 Proceedings of Intl. Supercomputing Conference, 981-991 (2016). 
 LIBXSMM: Accelerating Small Matrix Multiplications
 by Runtime Code Generation.
 https://doi.org/10.1109/SC.2016.83

 Borstnik, U; VandeVondele, J; Weber, V; Hutter, J. 
 PARALLEL COMPUTING, 40 (5-6), 47-58 (2014). 
 Sparse matrix multiplication: The distributed block-compressed sparse
 row library.
 https://doi.org/10.1016/j.parco.2014.03.012

 Hutter, J; Iannuzzi, M; Schiffmann, F; VandeVondele, J. 
 WIREs Comput Mol Sci., 4 (1), 15-25 (2014). 
 CP2K: atomistic simulations of condensed matter systems.
 https://doi.org/10.1002/wcms.1159

 Marek, A; Blum, V; Johanni, R; Havu, V; Lang, B; Auckenthaler, T;
 Heinecke, A; Bungartz, H; Lederer, H. 
 Journal of Physics: Condensed Matter, 26 (21), (2014). 
 The ELPA library: scalable parallel eigenvalue solutions for
 electronic structure
 theory and computational science.
 https://doi.org/10.1088/0953-8984/26/21/213201

 Grimme, S; Ehrlich, S; Goerigk, L. 
 JOURNAL OF COMPUTATIONAL CHEMISTRY, 32, 1456 (2011). 
 Effect of the damping function in dispersion corrected density functional theory.
 https://doi.org/10.1002/jcc.21759

 Grimme, S; Antony, J; Ehrlich, S; Krieg, H. 
 JOURNAL OF CHEMICAL PHYSICS, 132 (15), 154104 (2010). 
 A consistent and accurate ab initio parametrization of density
 functional dispersion correction (DFT-D) for the 94 elements H-Pu.
 https://doi.org/10.1063/1.3382344

 VandeVondele, J; Hutter, J. 
 JOURNAL OF CHEMICAL PHYSICS, 127 (11), 114105 (2007). 
 Gaussian basis sets for accurate calculations on molecular systems in
 gas and condensed phases.
 https://doi.org/10.1063/1.2770708

 Kuhne, TD; Krack, M; Mohamed, FR; Parrinello, M. 
 PHYSICAL REVIEW LETTERS, 98 (6), 066401 (2007). 
 Efficient and accurate Car-Parrinello-like approach to
 Born-Oppenheimer molecular dynamics.
 https://doi.org/10.1103/PhysRevLett.98.066401

 Krack, M. 
 THEORETICAL CHEMISTRY ACCOUNTS, 114 (1-3), 145-152 (2005). 
 Pseudopotentials for H to Kr optimized for gradient-corrected
 exchange-correlation functionals.
 https://doi.org/10.1007/s00214-005-0655-y

 VandeVondele, J; Krack, M; Mohamed, F; Parrinello, M; Chassaing, T;
 Hutter, J. COMPUTER PHYSICS COMMUNICATIONS, 167 (2), 103-128 (2005). 
 QUICKSTEP: Fast and accurate density functional calculations using a
 mixed Gaussian and plane waves approach.
 https://doi.org/10.1016/j.cpc.2004.12.014

 Frigo, M; Johnson, SG. 
 PROCEEDINGS OF THE IEEE, 93 (2), 216-231 (2005). 
 The design and implementation of FFTW3.
 https://doi.org/10.1109/JPROC.2004.840301

 Kolafa, J. 
 JOURNAL OF COMPUTATIONAL CHEMISTRY, 25 (3), 335-342 (2004). 
 Time-reversible always stable predictor-corrector method for
 molecular dynamics of polarizable molecules.
 https://doi.org/10.1002/jcc.10385

 VandeVondele, J; Hutter, J. 
 JOURNAL OF CHEMICAL PHYSICS, 118 (10), 4365-4369 (2003). 
 An efficient orbital transformation method for electronic structure
 calculations.
 https://doi.org/10.1063/1.1543154

 Hartwigsen, C; Goedecker, S; Hutter, J. 
 PHYSICAL REVIEW B, 58 (7), 3641-3662 (1998). 
 Relativistic separable dual-space Gaussian pseudopotentials from H to Rn.
 https://doi.org/10.1103/PhysRevB.58.3641

 Lippert, G; Hutter, J; Parrinello, M. 
 MOLECULAR PHYSICS, 92 (3), 477-487 (1997). 
 A hybrid Gaussian and plane wave density functional scheme.
 https://doi.org/10.1080/002689797170220

 Perdew, JP; Burke, K; Ernzerhof, M. 
 PHYSICAL REVIEW LETTERS, 77 (18), 3865-3868 (1996). 
 Generalized gradient approximation made simple.
 https://doi.org/10.1103/PhysRevLett.77.3865

 Goedecker, S; Teter, M; Hutter, J. 
 PHYSICAL REVIEW B, 54 (3), 1703-1710 (1996). 
 Separable dual-space Gaussian pseudopotentials.
 https://doi.org/10.1103/PhysRevB.54.1703


 -------------------------------------------------------------------------------
 -                                                                             -
 -                                T I M I N G                                  -
 -                                                                             -
 -------------------------------------------------------------------------------
 SUBROUTINE                       CALLS  ASD         SELF TIME        TOTAL TIME
                                MAXIMUM       AVERAGE  MAXIMUM  AVERAGE  MAXIMUM
 CP2K                                 1  1.0    0.014    0.035 1567.910 1567.918
 cp_geo_opt                           1  2.0    0.000    0.001 1567.458 1567.467
 geoopt_bfgs                          1  3.0    0.015    0.022 1567.458 1567.466
 cp_eval_at                          37  4.0    0.006    0.008 1562.557 1562.570
 qs_forces                           36  5.0    0.005    0.008 1515.644 1515.652
 qs_energies                         37  6.0    0.004    0.005 1424.627 1424.702
 scf_env_do_scf                      37  7.0    0.003    0.012 1366.811 1366.835
 scf_env_do_scf_inner_loop         1136  8.0    0.027    0.086 1318.766 1321.368
 rebuild_ks_matrix                 1172  9.9    0.008    0.011  687.724  692.780
 qs_ks_build_kohn_sham_matrix      1172 10.9    0.193    0.228  687.715  692.773
 qs_ks_update_qs_env               1190  9.0    0.019    0.022  656.730  661.622
 sum_up_and_integrate              1172 11.9    0.398    0.462  551.937  552.303
 integrate_v_rspace                1172 12.9    0.039    0.069  551.535  551.894
 rs_pw_transfer                   11798 13.4    0.174    0.230  334.810  448.292
 qs_rho_update_rho_low             1173  9.0    0.010    0.012  445.371  447.256
 calculate_rho_elec                1173 10.0    0.218    0.232  445.361  447.249
 grid_integrate_task_list          1172 13.9  241.952  369.516  241.952  369.516
 grid_collocate_task_list          1173 11.0  234.888  332.432  234.888  332.432
 density_rs2pw                     1173 11.0    0.053    0.068  199.418  312.078
 mp_waitany                       90278 15.4  169.607  301.862  169.607  301.862
 dbcsr_multiply_generic           19875 13.9    0.808    0.914  268.593  283.692
 mp_alltoall_d11v                 13715 15.3  150.217  281.830  150.217  281.830
 rs_gather_matrices                1172 13.9    0.616    0.941  138.737  271.092
 qs_scf_new_mos                    1136  9.0    0.007    0.011  259.991  262.794
 qs_scf_loop_do_ot                 1136 10.0    0.006    0.009  259.983  262.786
 ot_scf_mini                       1136 11.0    0.032    0.042  241.032  243.787
 rs_pw_transfer_RS2PW_150          1210 12.9   24.787   47.767  120.608  235.003
 multiply_cannon                  19875 14.9    1.418    1.797  195.835  232.247
 multiply_cannon_loop             19875 15.9    1.376    1.569  184.781  219.317
 potential_pw2rs                   1172 13.9    0.057    0.075  170.457  171.104
 ot_mini                           1136 12.0    0.017    0.025  162.968  166.419
 multiply_cannon_multrec         318000 16.9  109.997  146.710  110.068  146.782
 qs_ot_get_derivative              1136 13.0    0.007    0.011  127.603  130.194
 mp_waitall_1                   4705535 17.0   99.755  128.861   99.755  128.861
 pw_transfer                      24655 14.0    1.845    2.310  117.767  123.364
 fft_wrap_pw1pw2                  22311 15.1    0.226    0.272  115.144  120.348
 fft_wrap_pw1pw2_150              12931 16.6    6.809    7.260  101.970  106.893
 build_core_hamiltonian_matrix_      36  6.0    0.001    0.002   95.701  105.542
 rs_pw_transfer_PW2RS_150          1208 15.7   58.598   60.680   91.224   93.268
 fft3d_pb                         12931 17.6   23.977   26.841   86.915   92.785
 qs_vxc_create                     1172 11.9    0.038    0.041   90.789   91.534
 xc_vxc_pw_create                  1172 12.9    0.506    0.652   90.751   91.498
 build_core_ppnl_forces              36  7.0   83.149   90.402   83.149   90.402
 qs_ot_get_derivative_taylor       1120 14.0    0.021    0.028   84.043   86.690
 xc_pw_derive                      7032 14.9    0.056    0.064   65.695   69.245
 multiply_cannon_metrocomm1      318000 16.9    0.627    0.702   44.909   67.935
 mp_alltoall_z22v                 35242 19.3   53.896   66.166   53.896   66.166
 rs_pw_transfer_RS2PW_50           1173 13.0   17.070   24.278   48.062   65.909
 mp_sum_d                         24075 14.2   19.679   61.468   19.679   61.468
 rs_pw_transfer_PW2RS_50           1172 15.9   14.600   20.548   51.402   56.399
 calculate_ecore_overlap             73  7.0    0.001    0.001    9.961   50.549
 multiply_cannon_metrocomm3      318000 16.9    0.552    0.619   14.710   49.577
 xc_rho_set_and_dset_create        1172 13.9    1.013    1.244   46.119   47.993
 xc_pw_divergence                  1172 13.9    0.025    0.031   43.239   46.446
 init_scf_loop                       54  8.0    0.002    0.002   45.299   45.307
 make_m2s                         39750 14.9    0.490    0.569   41.841   45.259
 mp_sum_l                         94572 14.9   25.861   41.258   25.861   41.258
 make_images                      39750 15.9    1.046    1.192   37.181   40.317
 mp_irecv_dv                     676492 17.8   11.318   37.586   11.318   37.586
 qs_ot_get_p                       1190 11.9    0.006    0.009   34.365   36.757
 ot_diis_step                      1136 13.0    0.104    0.111   33.687   33.693
 qs_ks_update_qs_env_forces          36  6.0    0.000    0.000   32.168   32.324
 -------------------------------------------------------------------------------

 The number of warnings for this run is : 0
 
 -------------------------------------------------------------------------------
  **** **** ******  **  PROGRAM ENDED AT                 2023-04-19 16:12:48.775
 ***** ** ***  *** **   PROGRAM RAN ON                                 nid001121
 **    ****   ******    PROGRAM RAN BY                                  dpassero
 ***** **    ** ** **   PROGRAM PROCESS ID                                 70470
  **** **  *******  **  PROGRAM STOPPED IN /scratch/e1000/dpassero/MMM_2023/jbac
                                           hmann/grimme_d3/ethane/full
