     188
 i =        1, E =    -21725.8260876871
 Pt         0.0000000000        1.6003333000       10.0000000000
 Pt         2.7718585800        1.6003333000       10.0000000000
 Pt         5.5437171600        1.6003333000       10.0000000000
 Pt         8.3155757500        1.6003333000       10.0000000000
 Pt        11.0874343300        1.6003333000       10.0000000000
 Pt        13.8592929100        1.6003333000       10.0000000000
 Pt         1.3859292900        4.0008332500       10.0000000000
 Pt         4.1577878700        4.0008332500       10.0000000000
 Pt         6.9296464600        4.0008332500       10.0000000000
 Pt         9.7015050400        4.0008332500       10.0000000000
 Pt        12.4733636200        4.0008332500       10.0000000000
 Pt        15.2452222000        4.0008332500       10.0000000000
 Pt         2.7718585800        6.4013331900       10.0000000000
 Pt         5.5437171600        6.4013331900       10.0000000000
 Pt         8.3155757500        6.4013331900       10.0000000000
 Pt        11.0874343300        6.4013331900       10.0000000000
 Pt        13.8592929100        6.4013331900       10.0000000000
 Pt        16.6311514900        6.4013331900       10.0000000000
 Pt         4.1577878700        8.8018331400       10.0000000000
 Pt         6.9296464600        8.8018331400       10.0000000000
 Pt         9.7015050400        8.8018331400       10.0000000000
 Pt        12.4733636200        8.8018331400       10.0000000000
 Pt        15.2452222000        8.8018331400       10.0000000000
 Pt        18.0170807800        8.8018331400       10.0000000000
 Pt         5.5437171600       11.2023330900       10.0000000000
 Pt         8.3155757500       11.2023330900       10.0000000000
 Pt        11.0874343300       11.2023330900       10.0000000000
 Pt        13.8592929100       11.2023330900       10.0000000000
 Pt        16.6311514900       11.2023330900       10.0000000000
 Pt        19.4030100800       11.2023330900       10.0000000000
 Pt         6.9296464600       13.6028330400       10.0000000000
 Pt         9.7015050400       13.6028330400       10.0000000000
 Pt        12.4733636200       13.6028330400       10.0000000000
 Pt        15.2452222000       13.6028330400       10.0000000000
 Pt        18.0170807800       13.6028330400       10.0000000000
 Pt        20.7889393700       13.6028330400       10.0000000000
 Pt         0.0000000000        0.0000000000       12.2632130600
 Pt         2.7718585800        0.0000000000       12.2632130600
 Pt         5.5437171600        0.0000000000       12.2632130600
 Pt         8.3155757500        0.0000000000       12.2632130600
 Pt        11.0874343300        0.0000000000       12.2632130600
 Pt        13.8592929100        0.0000000000       12.2632130600
 Pt         1.3859292900        2.4004999500       12.2632130600
 Pt         4.1577878700        2.4004999500       12.2632130600
 Pt         6.9296464600        2.4004999500       12.2632130600
 Pt         9.7015050400        2.4004999500       12.2632130600
 Pt        12.4733636200        2.4004999500       12.2632130600
 Pt        15.2452222000        2.4004999500       12.2632130600
 Pt         2.7718585800        4.8009999000       12.2632130600
 Pt         5.5437171600        4.8009999000       12.2632130600
 Pt         8.3155757500        4.8009999000       12.2632130600
 Pt        11.0874343300        4.8009999000       12.2632130600
 Pt        13.8592929100        4.8009999000       12.2632130600
 Pt        16.6311514900        4.8009999000       12.2632130600
 Pt         4.1577878700        7.2014998400       12.2632130600
 Pt         6.9296464600        7.2014998400       12.2632130600
 Pt         9.7015050400        7.2014998400       12.2632130600
 Pt        12.4733636200        7.2014998400       12.2632130600
 Pt        15.2452222000        7.2014998400       12.2632130600
 Pt        18.0170807800        7.2014998400       12.2632130600
 Pt         5.5437171600        9.6019997900       12.2632130600
 Pt         8.3155757500        9.6019997900       12.2632130600
 Pt        11.0874343300        9.6019997900       12.2632130600
 Pt        13.8592929100        9.6019997900       12.2632130600
 Pt        16.6311514900        9.6019997900       12.2632130600
 Pt        19.4030100800        9.6019997900       12.2632130600
 Pt         6.9296464600       12.0024997400       12.2632130600
 Pt         9.7015050400       12.0024997400       12.2632130600
 Pt        12.4733636200       12.0024997400       12.2632130600
 Pt        15.2452222000       12.0024997400       12.2632130600
 Pt        18.0170807800       12.0024997400       12.2632130600
 Pt        20.7889393700       12.0024997400       12.2632130600
 Pt         1.3859292900        0.8001666500       14.5264261100
 Pt         4.1577878700        0.8001666500       14.5264261100
 Pt         6.9296464600        0.8001666500       14.5264261100
 Pt         9.7015050400        0.8001666500       14.5264261100
 Pt        12.4733636200        0.8001666500       14.5264261100
 Pt        15.2452222000        0.8001666500       14.5264261100
 Pt         2.7718585800        3.2006666000       14.5264261100
 Pt         5.5437171600        3.2006666000       14.5264261100
 Pt         8.3155757500        3.2006666000       14.5264261100
 Pt        11.0874343300        3.2006666000       14.5264261100
 Pt        13.8592929100        3.2006666000       14.5264261100
 Pt        16.6311514900        3.2006666000       14.5264261100
 Pt         4.1577878700        5.6011665500       14.5264261100
 Pt         6.9296464600        5.6011665500       14.5264261100
 Pt         9.7015050400        5.6011665500       14.5264261100
 Pt        12.4733636200        5.6011665500       14.5264261100
 Pt        15.2452222000        5.6011665500       14.5264261100
 Pt        18.0170807800        5.6011665500       14.5264261100
 Pt         5.5437171600        8.0016664900       14.5264261100
 Pt         8.3155757500        8.0016664900       14.5264261100
 Pt        11.0874343300        8.0016664900       14.5264261100
 Pt        13.8592929100        8.0016664900       14.5264261100
 Pt        16.6311514900        8.0016664900       14.5264261100
 Pt        19.4030100800        8.0016664900       14.5264261100
 Pt         6.9296464600       10.4021664400       14.5264261100
 Pt         9.7015050400       10.4021664400       14.5264261100
 Pt        12.4733636200       10.4021664400       14.5264261100
 Pt        15.2452222000       10.4021664400       14.5264261100
 Pt        18.0170807800       10.4021664400       14.5264261100
 Pt        20.7889393700       10.4021664400       14.5264261100
 Pt         8.3155757500       12.8026663900       14.5264261100
 Pt        11.0874343300       12.8026663900       14.5264261100
 Pt        13.8592929100       12.8026663900       14.5264261100
 Pt        16.6311514900       12.8026663900       14.5264261100
 Pt        19.4030100800       12.8026663900       14.5264261100
 Pt        22.1748686600       12.8026663900       14.5264261100
 Pt         0.0000000000        1.6003333000       16.7896391700
 Pt         2.7718585800        1.6003333000       16.7896391700
 Pt         5.5437171600        1.6003333000       16.7896391700
 Pt         8.3155757500        1.6003333000       16.7896391700
 Pt        11.0874343300        1.6003333000       16.7896391700
 Pt        13.8592929100        1.6003333000       16.7896391700
 Pt         1.3859292900        4.0008332500       16.7896391700
 Pt         4.1577878700        4.0008332500       16.7896391700
 Pt         6.9296464600        4.0008332500       16.7896391700
 Pt         9.7015050400        4.0008332500       16.7896391700
 Pt        12.4733636200        4.0008332500       16.7896391700
 Pt        15.2452222000        4.0008332500       16.7896391700
 Pt         2.7718585800        6.4013331900       16.7896391700
 Pt         5.5437171600        6.4013331900       16.7896391700
 Pt         8.3155757500        6.4013331900       16.7896391700
 Pt        11.0874343300        6.4013331900       16.7896391700
 Pt        13.8592929100        6.4013331900       16.7896391700
 Pt        16.6311514900        6.4013331900       16.7896391700
 Pt         4.1577878700        8.8018331400       16.7896391700
 Pt         6.9296464600        8.8018331400       16.7896391700
 Pt         9.7015050400        8.8018331400       16.7896391700
 Pt        12.4733636200        8.8018331400       16.7896391700
 Pt        15.2452222000        8.8018331400       16.7896391700
 Pt        18.0170807800        8.8018331400       16.7896391700
 Pt         5.5437171600       11.2023330900       16.7896391700
 Pt         8.3155757500       11.2023330900       16.7896391700
 Pt        11.0874343300       11.2023330900       16.7896391700
 Pt        13.8592929100       11.2023330900       16.7896391700
 Pt        16.6311514900       11.2023330900       16.7896391700
 Pt        19.4030100800       11.2023330900       16.7896391700
 Pt         6.9296464600       13.6028330400       16.7896391700
 Pt         9.7015050400       13.6028330400       16.7896391700
 Pt        12.4733636200       13.6028330400       16.7896391700
 Pt        15.2452222000       13.6028330400       16.7896391700
 Pt        18.0170807800       13.6028330400       16.7896391700
 Pt        20.7889393700       13.6028330400       16.7896391700
 Pt         0.0006668928       -0.0001087851       19.1057699409
 Pt         2.7572347297       -0.0005605795       19.0999012506
 Pt         5.5338575224        0.0008276404       19.0881377682
 Pt         8.3180502475        0.0010461293       19.0831049979
 Pt        11.0995651318        0.0012653055       19.0888438731
 Pt        13.8734422678        0.0005448277       19.1015319811
 Pt         1.3803398079        2.3884851467       19.0999130237
 Pt         4.1468895515        2.3947435450       19.0918150120
 Pt         6.9254724362        2.3977923771       19.0865458634
 Pt         9.7061998254        2.3938126465       19.0862979048
 Pt        12.4851070107        2.3934544313       19.0922719690
 Pt        15.2518776110        2.3891414472       19.1007036491
 Pt         2.7673303626        4.7900055963       19.0873986806
 Pt         5.5358247032        4.7918162161       19.0850764956
 Pt         8.3091863072        4.7785056092       19.0604804987
 Pt        11.1015395140        4.7734721553       19.0706165301
 Pt        13.8652371101        4.7904595589       19.0894107171
 Pt        16.6312447683        4.7872473668       19.0907609155
 Pt         4.1490061467        7.2012080154       19.0831070423
 Pt         6.9026669354        7.2038238561       19.0520100196
 Pt         9.7378963655        7.2014166232       19.0113620319
 Pt        12.4993352515        7.2071264432       19.0715285077
 Pt        15.2440997065        7.1967523128       19.0852686324
 Pt        18.0142890774        7.1996476123       19.0843037626
 Pt         5.5434154072        9.6178211213       19.0891781550
 Pt         8.3133211718        9.6371562355       19.0805103482
 Pt        11.0879987253        9.6264462077       19.0840039900
 Pt        13.8581816542        9.6052069813       19.0849667328
 Pt        16.6302750835        9.6021844659       19.0804976698
 Pt        19.4071663015        9.6051565287       19.0853091561
 Pt         6.9362665526       12.0151869213       19.1008329811
 Pt         9.6955868752       12.0179370749       19.1003073105
 Pt        12.4605459836       12.0079971405       19.0918434433
 Pt        15.2404961174       12.0031887167       19.0852102276
 Pt        18.0220297170       12.0044115057       19.0823925739
 Pt        20.8004110336       12.0092556501       19.0928970763
  C         9.9808455473        7.0284173408       21.3231718336
  C         8.4609508329        6.9855213079       21.3553616439
  H        10.3999007746        8.0342861411       21.3265064759
  H        10.4013283694        6.4792948801       22.1700785709
  H        10.4103442438        6.4701264850       20.4626980117
  H         8.0776299088        5.9644773465       21.3134696563
  H         8.0635089304        7.5287349011       22.2107586682
  H         8.0742396810        7.5229297723       20.4703864639
     188
 i =        2, E =    -21725.8428383921
 Pt         0.0000000000        1.6003333000       10.0000000000
 Pt         2.7718585800        1.6003333000       10.0000000000
 Pt         5.5437171600        1.6003333000       10.0000000000
 Pt         8.3155757500        1.6003333000       10.0000000000
 Pt        11.0874343300        1.6003333000       10.0000000000
 Pt        13.8592929100        1.6003333000       10.0000000000
 Pt         1.3859292900        4.0008332500       10.0000000000
 Pt         4.1577878700        4.0008332500       10.0000000000
 Pt         6.9296464600        4.0008332500       10.0000000000
 Pt         9.7015050400        4.0008332500       10.0000000000
 Pt        12.4733636200        4.0008332500       10.0000000000
 Pt        15.2452222000        4.0008332500       10.0000000000
 Pt         2.7718585800        6.4013331900       10.0000000000
 Pt         5.5437171600        6.4013331900       10.0000000000
 Pt         8.3155757500        6.4013331900       10.0000000000
 Pt        11.0874343300        6.4013331900       10.0000000000
 Pt        13.8592929100        6.4013331900       10.0000000000
 Pt        16.6311514900        6.4013331900       10.0000000000
 Pt         4.1577878700        8.8018331400       10.0000000000
 Pt         6.9296464600        8.8018331400       10.0000000000
 Pt         9.7015050400        8.8018331400       10.0000000000
 Pt        12.4733636200        8.8018331400       10.0000000000
 Pt        15.2452222000        8.8018331400       10.0000000000
 Pt        18.0170807800        8.8018331400       10.0000000000
 Pt         5.5437171600       11.2023330900       10.0000000000
 Pt         8.3155757500       11.2023330900       10.0000000000
 Pt        11.0874343300       11.2023330900       10.0000000000
 Pt        13.8592929100       11.2023330900       10.0000000000
 Pt        16.6311514900       11.2023330900       10.0000000000
 Pt        19.4030100800       11.2023330900       10.0000000000
 Pt         6.9296464600       13.6028330400       10.0000000000
 Pt         9.7015050400       13.6028330400       10.0000000000
 Pt        12.4733636200       13.6028330400       10.0000000000
 Pt        15.2452222000       13.6028330400       10.0000000000
 Pt        18.0170807800       13.6028330400       10.0000000000
 Pt        20.7889393700       13.6028330400       10.0000000000
 Pt         0.0000000000        0.0000000000       12.2632130600
 Pt         2.7718585800        0.0000000000       12.2632130600
 Pt         5.5437171600        0.0000000000       12.2632130600
 Pt         8.3155757500        0.0000000000       12.2632130600
 Pt        11.0874343300        0.0000000000       12.2632130600
 Pt        13.8592929100        0.0000000000       12.2632130600
 Pt         1.3859292900        2.4004999500       12.2632130600
 Pt         4.1577878700        2.4004999500       12.2632130600
 Pt         6.9296464600        2.4004999500       12.2632130600
 Pt         9.7015050400        2.4004999500       12.2632130600
 Pt        12.4733636200        2.4004999500       12.2632130600
 Pt        15.2452222000        2.4004999500       12.2632130600
 Pt         2.7718585800        4.8009999000       12.2632130600
 Pt         5.5437171600        4.8009999000       12.2632130600
 Pt         8.3155757500        4.8009999000       12.2632130600
 Pt        11.0874343300        4.8009999000       12.2632130600
 Pt        13.8592929100        4.8009999000       12.2632130600
 Pt        16.6311514900        4.8009999000       12.2632130600
 Pt         4.1577878700        7.2014998400       12.2632130600
 Pt         6.9296464600        7.2014998400       12.2632130600
 Pt         9.7015050400        7.2014998400       12.2632130600
 Pt        12.4733636200        7.2014998400       12.2632130600
 Pt        15.2452222000        7.2014998400       12.2632130600
 Pt        18.0170807800        7.2014998400       12.2632130600
 Pt         5.5437171600        9.6019997900       12.2632130600
 Pt         8.3155757500        9.6019997900       12.2632130600
 Pt        11.0874343300        9.6019997900       12.2632130600
 Pt        13.8592929100        9.6019997900       12.2632130600
 Pt        16.6311514900        9.6019997900       12.2632130600
 Pt        19.4030100800        9.6019997900       12.2632130600
 Pt         6.9296464600       12.0024997400       12.2632130600
 Pt         9.7015050400       12.0024997400       12.2632130600
 Pt        12.4733636200       12.0024997400       12.2632130600
 Pt        15.2452222000       12.0024997400       12.2632130600
 Pt        18.0170807800       12.0024997400       12.2632130600
 Pt        20.7889393700       12.0024997400       12.2632130600
 Pt         1.3859292900        0.8001666500       14.5264261100
 Pt         4.1577878700        0.8001666500       14.5264261100
 Pt         6.9296464600        0.8001666500       14.5264261100
 Pt         9.7015050400        0.8001666500       14.5264261100
 Pt        12.4733636200        0.8001666500       14.5264261100
 Pt        15.2452222000        0.8001666500       14.5264261100
 Pt         2.7718585800        3.2006666000       14.5264261100
 Pt         5.5437171600        3.2006666000       14.5264261100
 Pt         8.3155757500        3.2006666000       14.5264261100
 Pt        11.0874343300        3.2006666000       14.5264261100
 Pt        13.8592929100        3.2006666000       14.5264261100
 Pt        16.6311514900        3.2006666000       14.5264261100
 Pt         4.1577878700        5.6011665500       14.5264261100
 Pt         6.9296464600        5.6011665500       14.5264261100
 Pt         9.7015050400        5.6011665500       14.5264261100
 Pt        12.4733636200        5.6011665500       14.5264261100
 Pt        15.2452222000        5.6011665500       14.5264261100
 Pt        18.0170807800        5.6011665500       14.5264261100
 Pt         5.5437171600        8.0016664900       14.5264261100
 Pt         8.3155757500        8.0016664900       14.5264261100
 Pt        11.0874343300        8.0016664900       14.5264261100
 Pt        13.8592929100        8.0016664900       14.5264261100
 Pt        16.6311514900        8.0016664900       14.5264261100
 Pt        19.4030100800        8.0016664900       14.5264261100
 Pt         6.9296464600       10.4021664400       14.5264261100
 Pt         9.7015050400       10.4021664400       14.5264261100
 Pt        12.4733636200       10.4021664400       14.5264261100
 Pt        15.2452222000       10.4021664400       14.5264261100
 Pt        18.0170807800       10.4021664400       14.5264261100
 Pt        20.7889393700       10.4021664400       14.5264261100
 Pt         8.3155757500       12.8026663900       14.5264261100
 Pt        11.0874343300       12.8026663900       14.5264261100
 Pt        13.8592929100       12.8026663900       14.5264261100
 Pt        16.6311514900       12.8026663900       14.5264261100
 Pt        19.4030100800       12.8026663900       14.5264261100
 Pt        22.1748686600       12.8026663900       14.5264261100
 Pt         0.0000000000        1.6003333000       16.7896391700
 Pt         2.7718585800        1.6003333000       16.7896391700
 Pt         5.5437171600        1.6003333000       16.7896391700
 Pt         8.3155757500        1.6003333000       16.7896391700
 Pt        11.0874343300        1.6003333000       16.7896391700
 Pt        13.8592929100        1.6003333000       16.7896391700
 Pt         1.3859292900        4.0008332500       16.7896391700
 Pt         4.1577878700        4.0008332500       16.7896391700
 Pt         6.9296464600        4.0008332500       16.7896391700
 Pt         9.7015050400        4.0008332500       16.7896391700
 Pt        12.4733636200        4.0008332500       16.7896391700
 Pt        15.2452222000        4.0008332500       16.7896391700
 Pt         2.7718585800        6.4013331900       16.7896391700
 Pt         5.5437171600        6.4013331900       16.7896391700
 Pt         8.3155757500        6.4013331900       16.7896391700
 Pt        11.0874343300        6.4013331900       16.7896391700
 Pt        13.8592929100        6.4013331900       16.7896391700
 Pt        16.6311514900        6.4013331900       16.7896391700
 Pt         4.1577878700        8.8018331400       16.7896391700
 Pt         6.9296464600        8.8018331400       16.7896391700
 Pt         9.7015050400        8.8018331400       16.7896391700
 Pt        12.4733636200        8.8018331400       16.7896391700
 Pt        15.2452222000        8.8018331400       16.7896391700
 Pt        18.0170807800        8.8018331400       16.7896391700
 Pt         5.5437171600       11.2023330900       16.7896391700
 Pt         8.3155757500       11.2023330900       16.7896391700
 Pt        11.0874343300       11.2023330900       16.7896391700
 Pt        13.8592929100       11.2023330900       16.7896391700
 Pt        16.6311514900       11.2023330900       16.7896391700
 Pt        19.4030100800       11.2023330900       16.7896391700
 Pt         6.9296464600       13.6028330400       16.7896391700
 Pt         9.7015050400       13.6028330400       16.7896391700
 Pt        12.4733636200       13.6028330400       16.7896391700
 Pt        15.2452222000       13.6028330400       16.7896391700
 Pt        18.0170807800       13.6028330400       16.7896391700
 Pt        20.7889393700       13.6028330400       16.7896391700
 Pt         0.0011709991        0.0024181577       19.1177454982
 Pt         2.7660120150        0.0007641258       19.1032766177
 Pt         5.5454044003        0.0006535706       19.0934544892
 Pt         8.3200467125       -0.0013913772       19.1161056786
 Pt        11.0918732575        0.0010037998       19.0927365073
 Pt        13.8659279487        0.0023907215       19.1092216953
 Pt         1.3851173690        2.3955976319       19.1035020294
 Pt         4.1535817535        2.3972939363       19.0953678141
 Pt         6.9246751064        2.3916179063       19.1146707537
 Pt         9.7043731118        2.3858079453       19.1135892952
 Pt        12.4819309326        2.3913508430       19.0967834184
 Pt        15.2484634731        2.3964889224       19.1069063677
 Pt         2.7696073386        4.7949358592       19.0893060076
 Pt         5.5305596967        4.7884139069       19.1044998329
 Pt         8.2998110946        4.7600149794       19.0723455711
 Pt        11.1300530976        4.7537969791       19.0695289664
 Pt        13.8664178217        4.7955487542       19.0956111181
 Pt        16.6315697013        4.7917268228       19.0901457615
 Pt         4.1420113901        7.1991457429       19.1151310392
 Pt         6.8849034977        7.1983472204       19.0500723395
 Pt         9.7588737799        7.1996745317       18.9899055096
 Pt        12.5237293315        7.2081226943       19.0975807564
 Pt        15.2454034373        7.1960942913       19.1132756393
 Pt        18.0125420996        7.1999989847       19.1116959968
 Pt         5.5322997263        9.6158475288       19.0933631541
 Pt         8.3150375568        9.6368322965       19.0527704653
 Pt        11.0946235216        9.6334356786       19.0734613776
 Pt        13.8607099748        9.6081094168       19.1128443668
 Pt        16.6299968106        9.6039476401       19.1117259815
 Pt        19.4062682232        9.6049631317       19.1121355278
 Pt         6.9307904210       12.0101231050       19.1082043909
 Pt         9.6997476764       12.0169930510       19.1062902422
 Pt        12.4671312861       12.0072632396       19.0951858704
 Pt        15.2412470021       12.0051106910       19.1111383105
 Pt        18.0242057346       12.0074662720       19.1073423591
 Pt        20.7938354679       12.0076040965       19.0987444618
  C         9.9668343609        7.0481520349       21.3553075235
  C         8.4521176970        6.9846138719       21.4071492611
  H        10.3927657916        8.0483943452       21.3564745774
  H        10.4132406400        6.4685537657       22.1697091385
  H        10.4178695721        6.4513146781       20.5064745325
  H         8.0789118839        5.9611513569       21.3402989466
  H         8.0438209231        7.5331251502       22.2482430531
  H         8.0600811494        7.5390629279       20.5233041848
     188
 i =        3, E =    -21725.8561945840
 Pt         0.0000000000        1.6003333000       10.0000000000
 Pt         2.7718585800        1.6003333000       10.0000000000
 Pt         5.5437171600        1.6003333000       10.0000000000
 Pt         8.3155757500        1.6003333000       10.0000000000
 Pt        11.0874343300        1.6003333000       10.0000000000
 Pt        13.8592929100        1.6003333000       10.0000000000
 Pt         1.3859292900        4.0008332500       10.0000000000
 Pt         4.1577878700        4.0008332500       10.0000000000
 Pt         6.9296464600        4.0008332500       10.0000000000
 Pt         9.7015050400        4.0008332500       10.0000000000
 Pt        12.4733636200        4.0008332500       10.0000000000
 Pt        15.2452222000        4.0008332500       10.0000000000
 Pt         2.7718585800        6.4013331900       10.0000000000
 Pt         5.5437171600        6.4013331900       10.0000000000
 Pt         8.3155757500        6.4013331900       10.0000000000
 Pt        11.0874343300        6.4013331900       10.0000000000
 Pt        13.8592929100        6.4013331900       10.0000000000
 Pt        16.6311514900        6.4013331900       10.0000000000
 Pt         4.1577878700        8.8018331400       10.0000000000
 Pt         6.9296464600        8.8018331400       10.0000000000
 Pt         9.7015050400        8.8018331400       10.0000000000
 Pt        12.4733636200        8.8018331400       10.0000000000
 Pt        15.2452222000        8.8018331400       10.0000000000
 Pt        18.0170807800        8.8018331400       10.0000000000
 Pt         5.5437171600       11.2023330900       10.0000000000
 Pt         8.3155757500       11.2023330900       10.0000000000
 Pt        11.0874343300       11.2023330900       10.0000000000
 Pt        13.8592929100       11.2023330900       10.0000000000
 Pt        16.6311514900       11.2023330900       10.0000000000
 Pt        19.4030100800       11.2023330900       10.0000000000
 Pt         6.9296464600       13.6028330400       10.0000000000
 Pt         9.7015050400       13.6028330400       10.0000000000
 Pt        12.4733636200       13.6028330400       10.0000000000
 Pt        15.2452222000       13.6028330400       10.0000000000
 Pt        18.0170807800       13.6028330400       10.0000000000
 Pt        20.7889393700       13.6028330400       10.0000000000
 Pt         0.0000000000        0.0000000000       12.2632130600
 Pt         2.7718585800        0.0000000000       12.2632130600
 Pt         5.5437171600        0.0000000000       12.2632130600
 Pt         8.3155757500        0.0000000000       12.2632130600
 Pt        11.0874343300        0.0000000000       12.2632130600
 Pt        13.8592929100        0.0000000000       12.2632130600
 Pt         1.3859292900        2.4004999500       12.2632130600
 Pt         4.1577878700        2.4004999500       12.2632130600
 Pt         6.9296464600        2.4004999500       12.2632130600
 Pt         9.7015050400        2.4004999500       12.2632130600
 Pt        12.4733636200        2.4004999500       12.2632130600
 Pt        15.2452222000        2.4004999500       12.2632130600
 Pt         2.7718585800        4.8009999000       12.2632130600
 Pt         5.5437171600        4.8009999000       12.2632130600
 Pt         8.3155757500        4.8009999000       12.2632130600
 Pt        11.0874343300        4.8009999000       12.2632130600
 Pt        13.8592929100        4.8009999000       12.2632130600
 Pt        16.6311514900        4.8009999000       12.2632130600
 Pt         4.1577878700        7.2014998400       12.2632130600
 Pt         6.9296464600        7.2014998400       12.2632130600
 Pt         9.7015050400        7.2014998400       12.2632130600
 Pt        12.4733636200        7.2014998400       12.2632130600
 Pt        15.2452222000        7.2014998400       12.2632130600
 Pt        18.0170807800        7.2014998400       12.2632130600
 Pt         5.5437171600        9.6019997900       12.2632130600
 Pt         8.3155757500        9.6019997900       12.2632130600
 Pt        11.0874343300        9.6019997900       12.2632130600
 Pt        13.8592929100        9.6019997900       12.2632130600
 Pt        16.6311514900        9.6019997900       12.2632130600
 Pt        19.4030100800        9.6019997900       12.2632130600
 Pt         6.9296464600       12.0024997400       12.2632130600
 Pt         9.7015050400       12.0024997400       12.2632130600
 Pt        12.4733636200       12.0024997400       12.2632130600
 Pt        15.2452222000       12.0024997400       12.2632130600
 Pt        18.0170807800       12.0024997400       12.2632130600
 Pt        20.7889393700       12.0024997400       12.2632130600
 Pt         1.3859292900        0.8001666500       14.5264261100
 Pt         4.1577878700        0.8001666500       14.5264261100
 Pt         6.9296464600        0.8001666500       14.5264261100
 Pt         9.7015050400        0.8001666500       14.5264261100
 Pt        12.4733636200        0.8001666500       14.5264261100
 Pt        15.2452222000        0.8001666500       14.5264261100
 Pt         2.7718585800        3.2006666000       14.5264261100
 Pt         5.5437171600        3.2006666000       14.5264261100
 Pt         8.3155757500        3.2006666000       14.5264261100
 Pt        11.0874343300        3.2006666000       14.5264261100
 Pt        13.8592929100        3.2006666000       14.5264261100