      38
 i =   200100, time =   100050.000, E =        -0.0582725022
 Ar        77.3073999317       79.0336630229       79.2072931063
 Ar        70.3087127538       71.0154690904       75.5898255796
 Ar        76.3176152398       71.1188818590       72.6221192023
 Ar        79.6105333562       75.1692517083       74.8236038541
 Ar        70.6441611998       77.0122158890       78.7121396430
 Ar        77.4017728568       71.3652444467       79.2436897354
 Ar        72.8161126779       71.3183350584       71.3089766337
 Ar        78.6467157912       77.0924655791       70.9992362989
 Ar        70.3032322092       74.8513005015       75.5710714682
 Ar        73.1705499791       80.8000110509       74.3486790750
 Ar        79.2603640635       73.2263344532       71.4773988713
 Ar        75.9416122452       73.4222387904       69.7769058977
 Ar        69.6891656734       72.8434468832       72.5867849413
 Ar        69.9742041818       78.8057068123       75.4328102141
 Ar        79.5165464636       78.7357629537       74.4132240771
 Ar        76.5317314870       80.7665730581       75.8884500435
 Ar        72.2883250382       78.7183416152       71.2222940058
 Ar        75.0127544397       76.9708179294       69.4102544510
 Ar        69.5625983485       76.7224813906       72.5277433872
 Ar        72.2630411736       74.9146023702       71.0215641022
 Ar        75.9336145553       78.9370479650       72.7045437864
 Ar        70.8429904757       72.9999039523       78.7138880012
 Ar        79.6037278463       71.2324673939       74.4406531886
 Ar        73.5685692411       69.2416797811       74.2738989228
 Ar        74.0625774652       76.8508736196       80.5449622882
 Ar        80.0615230232       76.9377924201       77.8597045101
 Ar        73.7922080380       71.2675490155       77.2160123839
 Ar        77.0710038186       69.3090122315       75.7139015877
 Ar        80.3834517769       72.9159532554       77.7204180901
 Ar        77.1321064419       74.9701626452       79.1496664406
 Ar        74.2469155464       73.1452769201       80.5589159776
 Ar        73.1565971045       76.8551075392       74.1293008238
 Ar        73.5925014427       78.8989018045       77.5556646763
 Ar        76.2459743050       75.1086437942       72.9603379722
 Ar        76.4206094337       77.0113199600       76.0782582766
 Ar        73.3677643638       73.2075421955       74.2411966064
 Ar        73.5862060332       75.2625052222       77.3421427947
 Ar        76.8238256660       73.0797990585       75.9291688528
      38
 i =   200200, time =   100100.000, E =        -0.0585139323
 Ar        77.3042566725       79.0202445335       79.1690728098
 Ar        70.3643918084       71.0244805205       75.5792009749
 Ar        76.3135005875       71.1429937488       72.7173307636
 Ar        79.6245324267       75.2239241808       74.8159711135
 Ar        70.6590219925       77.0076372608       78.7098812354
 Ar        77.3863574485       71.3771793142       79.2630368009
 Ar        72.8364033409       71.2364992976       71.3530519622
 Ar        78.6211157408       77.0952367781       71.0183283937
 Ar        70.3170828434       74.8471704292       75.5845729657
 Ar        73.1574587579       80.8418550363       74.3442195851
 Ar        79.2552961178       73.2334557583       71.4624459174
 Ar        75.9498345823       73.4053305213       69.7509738181
 Ar        69.7465759717       72.8484765854       72.5459163555
 Ar        69.9916091686       78.7989522462       75.3954656067
 Ar        79.4844896925       78.6982809089       74.4430743197
 Ar        76.5034128683       80.8139657515       75.8614954247
 Ar        72.2548887765       78.7548168704       71.1915809045
 Ar        75.0028659104       77.0047110150       69.4315786242
 Ar        69.5241242860       76.7081730063       72.4751189687
 Ar        72.2980914285       74.8569395609       71.0224458483
 Ar        75.8916674745       78.8974902908       72.7358195622
 Ar        70.8417329799       72.9081490336       78.6675624099
 Ar        79.6458983513       71.2333812939       74.4545349083
 Ar        73.5792775308       69.2313003080       74.2923295706
 Ar        74.0439430907       76.8747352955       80.5743373670
 Ar        80.0768508158       76.9526272024       77.8724508542
 Ar        73.8362017695       71.2210852147       77.2429253842
 Ar        77.0542997814       69.2692577525       75.7423049290
 Ar        80.3479844656       72.9288747960       77.7040185837
 Ar        77.1634677666       75.0177583187       79.1471406687
 Ar        74.2331745488       73.1132639746       80.5094797879
 Ar        73.1466297490       76.8596434651       74.1076728852
 Ar        73.5747470619       78.9247685150       77.5545652998
 Ar        76.1905233611       75.1742768982       72.9246704613
 Ar        76.3897488914       77.0663781513       76.0947465823
 Ar        73.3710061006       73.1937144350       74.2362311337
 Ar        73.5900313629       75.2406049896       77.3684890953
 Ar        76.8868201640       73.0870499773       75.9526578915
      38
 i =   200300, time =   100150.000, E =        -0.0587973634
 Ar        77.2895205219       79.0034359457       79.1303803329
 Ar        70.4294662022       71.0256524247       75.5690590728
 Ar        76.3097751886       71.1813110747       72.8085976090
 Ar        79.6322098595       75.2485907620       74.7860610600
 Ar        70.6681610999       76.9972588352       78.7093566090
 Ar        77.3627813438       71.3770429953       79.2776564954
 Ar        72.8584106360       71.1446282704       71.3731067293
 Ar        78.6009520446       77.0931935975       71.0361923264
 Ar        70.3306775762       74.8507008804       75.6003135699
 Ar        73.1340176819       80.8772494396       74.3366357402
 Ar        79.2472698754       73.2522839816       71.4464422638
 Ar        75.9481339383       73.3851732902       69.7219313195
 Ar        69.7924275613       72.8544560927       72.4999606532
 Ar        70.0223641317       78.7928205438       75.3653920641
 Ar        79.4414258956       78.6818173906       74.4718514979
 Ar        76.4820819501       80.8592096840       75.8406658860
 Ar        72.2243741267       78.8023497155       71.1564745155
 Ar        74.9996019147       77.0377233037       69.4613058166
 Ar        69.4760888684       76.6878879420       72.4199137875
 Ar        72.3569800533       74.8092262046       71.0166195611
 Ar        75.8507789425       78.8573475648       72.7641714483
 Ar        70.8439825989       72.8256382169       78.6325678141
 Ar        79.7121447785       71.2425665647       74.4641474202
 Ar        73.5837157006       69.2121493135       74.3084049472
 Ar        74.0319179478       76.9012229320       80.6102145197
 Ar        80.0946014204       76.9716111224       77.8927964254
 Ar        73.8922642188       71.1815419258       77.2860172142
 Ar        77.0193463618       69.2188362536       75.7935628599
 Ar        80.3102029116       72.9504277556       77.6888838345
 Ar        77.1908966209       75.0757084251       79.1413357501
 Ar        74.2166099423       73.0806049350       80.4561255030
 Ar        73.1283365881       76.8714036543       74.0989301915
 Ar        73.5585825359       78.9606297287       77.5435702041
 Ar        76.1357437951       75.2320981770       72.8905409311
 Ar        76.3780180346       77.1192061093       76.1027429877
 Ar        73.3763708502       73.1813584944       74.2410904572
 Ar        73.5983895277       75.1899582919       77.3940702121
 Ar        76.9306924414       73.1003613969       75.9796101372
      38
 i =   200400, time =   100200.000, E =        -0.0590394833
 Ar        77.2634850428       78.9869451256       79.0943335751
 Ar        70.5016007268       71.0177173546       75.5520736757
 Ar        76.3085823699       71.2343073397       72.8923635859
 Ar        79.6337777936       75.2388083130       74.7378736739
 Ar        70.6724061873       76.9815473199       78.7101533061
 Ar        77.3330647748       71.3675690681       79.2876625331
 Ar        72.8813646643       71.0486523479       71.3687651144
 Ar        78.5886139858       77.0882489580       71.0515932376
 Ar        70.3425731555       74.8611797705       75.6135251788
 Ar        73.1009102919       80.9059255215       74.3250104446
 Ar        79.2354476649       73.2809356659       71.4321401813
 Ar        75.9365756871       73.3628839833       69.6933677649
 Ar        69.8247144385       72.8586656487       72.4550226104
 Ar        70.0648610426       78.7857846104       75.3412037292
 Ar        79.3878976508       78.6942560164       74.4984401175
 Ar        76.4679111039       80.9023272069       75.8260566154
 Ar        72.1956449655       78.8561893696       71.1216084717
 Ar        75.0032510080       77.0677865387       69.4982475489
 Ar        69.4255891174       76.6615369062       72.3639339199
 Ar        72.4388270613       74.7757019166       71.0047449259
 Ar        75.8131093937       78.8265303236       72.7878229540
 Ar        70.8495605195       72.7555562732       78.6137221246
 Ar        79.7896643819       71.2536056315       74.4710039859
 Ar        73.5822539471       69.1822930523       74.3259858726
 Ar        74.0264501141       76.9281355330       80.6476085915
 Ar        80.1165631034       76.9928470444       77.9161133379
 Ar        73.9592311986       71.1483894880       77.3369195047
 Ar        76.9777185679       69.1668732188       75.8620979215
 Ar        80.2722060234       72.9811793108       77.6778284734
 Ar        77.2106030920       75.1375138072       79.1346960500
 Ar        74.1990027071       73.0519578583       80.4041318421
 Ar        73.0966856203       76.8880380986       74.1048263169
 Ar        73.5434106126       79.0011781157       77.5247599597
 Ar        76.0840544205       75.2706316253       72.8615651352
 Ar        76.3807231499       77.1622413940       76.1000829500
 Ar        73.3842213852       73.1691953267       74.2571503585
 Ar        73.6139581250       75.1210458152       77.4156283179
 Ar        76.9528005921       73.1205023379       76.0066358611
      38
 i =   200500, time =   100250.000, E =        -0.0591497152
 Ar        77.2272835628       78.9749899349       79.0646020605
 Ar        70.5780345392       71.0007388330       75.5233359321
 Ar        76.3113125504       71.2986956306       72.9669490847
 Ar        79.6300715913       75.2023143143       74.6766320391
 Ar        70.6742740308       76.9611073710       78.7117575665
 Ar        77.3005431185       71.3515967118       79.2932092158
 Ar        72.9047250289       70.9558167178       71.3435147126
 Ar        78.5853351742       77.0822881951       71.0644503680
 Ar        70.3514374530       74.8759099643       75.6214159752
 Ar        73.0604064143       80.9283111289       74.3086978367
 Ar        79.2192400348       73.3168219342       71.4209982268
 Ar        75.9159344236       73.3394257902       69.6677615922
 Ar        69.8454491971       72.8599441642       72.4145560877
 Ar        70.1156974635       78.7768606835       75.3217483804
 Ar        79.3264504666       78.7330523849       74.5224991501
 Ar        76.4595210289       80.9432968179       75.8170358130
 Ar        72.1678609758       78.9119981266       71.0910182287
 Ar        75.0141165632       77.0941756587       69.5402686597
 Ar        69.3787242807       76.6304121883       72.3089396061
 Ar        72.5394308368       74.7561256583       70.9898412055
 Ar        75.7803586299       78.8149627659       72.8054887093
 Ar        70.8578714262       72.6999252595       78.6133110332
 Ar        79.8681437402       71.2633244926       74.4756673269
 Ar        73.5769994721       69.1421731126       74.3480112615
 Ar        74.0269537572       76.9537606823       80.6813486580
 Ar        80.1435906727       77.0141702020       77.9359942946
 Ar        74.0332859233       71.1183586920       77.3851160141
 Ar        76.9372288374       69.1201297706       75.9421740065
 Ar        80.2360054431       73.0211132049       77.6739559104
 Ar        77.2196576887       75.1964947928       79.1294537603
 Ar        74.1820763119       73.0314569426       80.3628892232
 Ar        73.0507630948       76.9066152958       74.1245869100
 Ar        73.5290124069       79.0407521873       77.5004825792
 Ar        76.0368812793       75.2808693928       72.8396728538
 Ar        76.3907930477       77.1882998618       76.0854570377
 Ar        73.3931742573       73.1551908264       74.2813750518
 Ar        73.6383489058       75.0461065190       77.4303410335
 Ar        76.9523220584       73.1470970268       76.0321423624
      38
 i =   200600, time =   100300.000, E =        -0.0590017666
 Ar        77.1827528011       78.9712928254       79.0440378352
 Ar        70.6550678326       70.9769372900       75.4831334499
 Ar        76.3183704008       71.3680942113       73.0305648287
 Ar        79.6216230194       75.1542661480       74.6075511358
 Ar        70.6769012898       76.9365563097       78.7137348011
 Ar        77.2699692626       71.3316196306       79.2950976236
 Ar        72.9286972282       70.8720070258       71.3033846259
 Ar        78.5903881765       77.0768317669       71.0761609056
 Ar        70.3559455270       74.8905764826       75.6232991877
 Ar        73.0158744965       80.9456295098       74.2873857776
 Ar        79.1982109186       73.3564271819       71.4127363792
 Ar        75.8880038346       73.3151222353       69.6463359045
 Ar        69.8597666051       72.8587676107       72.3792714386
 Ar        70.1685446907       78.7665215421       75.3070756831
 Ar        79.2619342388       78.7885167969       74.5434892396
 Ar        76.4542842432       80.9820181764       75.8128886915
 Ar        72.1408038099       78.9661273410       71.0675570317
 Ar        75.0327070917       77.1176512886       69.5842641696
 Ar        69.3398984019       76.5965316294       72.2565942749
 Ar        72.6504918574       74.7465545950       70.9769122619
 Ar        75.7528989094       78.8270049769       72.8168800061
 Ar        70.8680445382       72.6586423073       78.6289713066
 Ar        79.9409125572       71.2712097767       74.4782417822
 Ar        73.5716500484       69.0937112856       74.3743404802
 Ar        74.0325981934       76.9768756722       80.7072791842
 Ar        80.1749317775       77.0343037645       77.9474111256
 Ar        74.1075393885       71.0872481935       77.4201011812
 Ar        76.9026122887       69.0821291685       76.0285080441
 Ar        80.2029789539       73.0695897844       77.6794499319
 Ar        77.2165926114       75.2470339553       79.1273161006
 Ar        74.1674996622       73.0221633219       80.3445897524
 Ar        72.9970763657       76.9236502948       74.1537972494
 Ar        73.5157668458       79.0747477633       77.4728433944
 Ar        75.9952932545       75.2611602196       72.8259720963
 Ar        76.4007383796       77.1920909824       76.0588183508
 Ar        73.4006737847       73.1380806259       74.3088515421
 Ar        73.6710263115       74.9769151673       77.4352314140
 Ar        76.9302460902       73.1800763787       76.0566215797
      38
 i =   200700, time =   100350.000, E =        -0.0585490079
 Ar        77.1319029087       78.9777256648       79.0328931992
 Ar        70.7271296972       70.9501702479       75.4367168961
 Ar        76.3299161204       71.4341610382       73.0802711885
 Ar        79.6085148621       75.1090184819       74.5369189916
 Ar        70.6831663777       76.9084795179       78.7158001755
 Ar        77.2471853614       71.3100108594       79.2953895080
 Ar        72.9540568094       70.8005071256       71.2553142764
 Ar        78.6013037796       77.0731957516       71.0891921795
 Ar        70.3545620637       74.8999945414       75.6200683709
 Ar        72.9711078520       80.9598852138       74.2610984157
 Ar        79.1720752519       73.3949538786       71.4045699524
 Ar        75.8560608119       73.2893128057       69.6289319698
 Ar        69.8734832741       72.8561106477       72.3485312568
 Ar        70.2130159146       78.7576010919       75.2991499127
 Ar        79.2005997174       78.8512267085       74.5600385390
 Ar        76.4488160981       81.0183999809       75.8133048592
 Ar        72.1148260681       79.0155809402       71.0528038307
 Ar        75.0598806144       77.1403382916       69.6265201681
 Ar        69.3119005350       76.5621493166       72.2083572819
 Ar        72.7599738903       74.7416013007       70.9714140948
 Ar        75.7298202170       78.8591983863       72.8228014017
 Ar        70.8793778430       72.6298259172       78.6544645223
 Ar        80.0041358604       71.2779584068       74.4791417103
 Ar        73.5710801891       69.0386959892       74.4016123284
 Ar        74.0424765667       76.9966923460       80.7226152377
 Ar        80.2079561537       77.0528868601       77.9479049485
 Ar        74.1718808505       71.0533083666       77.4355283786
 Ar        76.8777836943       69.0532584038       76.1160146426
 Ar        80.1732993687       73.1254661276       77.6945134406
 Ar        77.2018015774       75.2854882454       79.1294932344
 Ar        74.1566714788       73.0248193220       80.3587777879
 Ar        72.9499067522       76.9347321775       74.1844070122
 Ar        73.5045652532       79.0999321041       77.4434869639
 Ar        75.9613763620       75.2190600062       72.8211538718
 Ar        76.4044152148       77.1715499330       76.0223882289
 Ar        73.4037511307       73.1180356433       74.3344438548
 Ar        73.7094115399       74.9231481424       77.4284157235
 Ar        76.8901276267       73.2202034540       76.0822514126
      38
 i =   200800, time =   100400.000, E =        -0.0579826924
 Ar        77.0764544204       78.9935973521       79.0283719370
 Ar        70.7866222691       70.9240575724       75.3914681193
 Ar        76.3465194598       71.4879859464       73.1129827511
 Ar        79.5906114593       75.0768646341       74.4731797076
 Ar        70.6952462021       76.8773837347       78.7177362421
 Ar        77.2376870768       71.2894065627       79.2972586514
 Ar        72.9817066614       70.7425913526       71.2057189041
 Ar        78.6149387366       77.0728149131       71.1062181189
 Ar        70.3458035267       74.8993836149       75.6132920358
 Ar        72.9295745108       80.9734875106       74.2303397128
 Ar        79.1407101538       73.4263134362       71.3909847193
 Ar        75.8250984872       73.2602285398       69.6139949475
 Ar        69.8911278451       72.8523732525       72.3215346582
 Ar        70.2361504894       78.7547864811       75.3013651881
 Ar        79.1482948295       78.9147340915       74.5705874667
 Ar        76.4394801024       81.0525655924       75.8184757957
 Ar        72.0906252228       79.0578787408       71.0472002736
 Ar        75.0964410298       77.1648400030       69.6634297723
 Ar        69.2962873529       76.5294629669       72.1654306816
 Ar        72.8530217979       74.7367739469       70.9775179785
 Ar        75.7100053981       78.9040737282       72.8247966760
 Ar        70.8918199278       72.6112198147       78.6826671219
 Ar        80.0557707629       71.2846461174       74.4793090305
 Ar        73.5806231600       68.9777301763       74.4249047485
 Ar        74.0556415660       77.0127826549       80.7258212797
 Ar        80.2387227215       77.0700002913       77.9370484933
 Ar        74.2139077298       71.0201889939       77.4326518475
 Ar        76.8674267221       69.0309190436       76.1994372778
 Ar        80.1459073462       73.1872111060       77.7172339363
 Ar        77.1773996222       75.3107536326       79.1369267936
 Ar        74.1506313714       73.0374866019       80.4058589255
 Ar        72.9266449929       76.9346422780       74.2069507273
 Ar        73.4965001036       79.1143111637       77.4135095551
 Ar        75.9394610228       75.1675982456       72.8256011572
 Ar        76.3986360001       77.1286758131       75.9804902038
 Ar        73.4001266879       73.0964031779       74.3533065349
 Ar        73.7492767012       74.8905634365       77.4119348072
 Ar        76.8384122167       73.2679467157       76.1111629898
      38
 i =   200900, time =   100450.000, E =        -0.0576777420
 Ar        77.0179173197       79.0162268160       79.0261198400
 Ar        70.8257958546       70.8999315542       75.3539534808
 Ar        76.3688723338       71.5216418234       73.1278817085
 Ar        79.5678558931       75.0641178263       74.4256518445
 Ar        70.7144827838       76.8436338158       78.7192484993
 Ar        77.2439729483       71.2726673152       79.3035317808
 Ar        73.0123192086       70.6984550579       71.1596362870
 Ar        78.6287574051       77.0772797170       71.1293271326
 Ar        70.3293628707       74.8861273919       75.6041441797
 Ar        72.8935749668       80.9884669619       74.1964334509
 Ar        79.1045044374       73.4443324650       71.3652579818
 Ar        75.8008007283       73.2255217050       69.5991197993
 Ar        69.9153808550       72.8471605338       72.2977541217
 Ar        70.2296639615       78.7606377855       75.3157358168
 Ar        79.1085305010       78.9744646938       74.5744264062
 Ar        76.4229820254       81.0849372092       75.8288119124
 Ar        72.0690008432       79.0909358308       71.0502424401
 Ar        75.1419268834       77.1924100674       69.6924878307
 Ar        69.2937851999       76.5004151798       72.1287551515
 Ar        72.9148502675       74.7303831641       70.9966649041
 Ar        75.6930545031       78.9548220031       72.8247909162
 Ar        70.9060690950       72.6012296500       78.7079744681
 Ar        80.0948469420       71.2924416001       74.4798710977
 Ar        73.6043171139       68.9108370029       74.4398535538
 Ar        74.0709856203       77.0250357459       80.7164479152
 Ar        80.2631270060       77.0860103235       77.9155212577
 Ar        74.2228191917       70.9954960745       77.4187493439
 Ar        76.8765662775       69.0107146186       76.2737606883
 Ar        80.1192421859       73.2529971449       77.7444894884
 Ar        77.1466355072       75.3242568429       79.1506701901
 Ar        74.1500555789       73.0573934040       80.4771134392
 Ar        72.9375751463       76.9204187732       74.2150943757
 Ar        73.4923452640       79.1168840905       77.3834382738
 Ar        75.9355182417       75.1200314246       72.8389355097
 Ar        76.3842614574       77.0699721399       75.9378710652
 Ar        73.3895688115       73.0751242457       74.3611031604
 Ar        73.7841045167       74.8806070310       77.3930561340
 Ar        76.7838859411       73.3206642068       76.1427743215
      38
 i =   201000, time =   100500.000, E =        -0.0577620774
 Ar        76.9578868763       79.0420991485       79.0221077123
 Ar        70.8399307536       70.8758035914       75.3282120695
 Ar        76.3968461128       71.5298302869       73.1279738846
 Ar        79.5403102913       75.0728362504       74.4003718839
 Ar        70.7413255035       76.8074521432       78.7198848354
 Ar        77.2637491193       71.2623839849       79.3148018175
 Ar        73.0462112203       70.6677446554       71.1205701332
 Ar        78.6415330641       77.0879083434       71.1598107777
 Ar        70.3070831867       74.8608492568       75.5927663981
 Ar        72.8636650257       81.0057953479       74.1618229758
 Ar        79.0650852422       73.4454738637       71.3236106948
 Ar        75.7865556635       73.1838371448       69.5825600138
 Ar        69.9471945292       72.8395012664       72.2769640811
 Ar        70.1968771729       78.7717158324       75.3402061185
 Ar        79.0817513084       79.0267392114       74.5721680842
 Ar        76.3970974334       81.1160062922       75.8444500175
 Ar        72.0506689322       79.1129890269       71.0606680429
 Ar        75.1935157596       77.2213813770       69.7130216088
 Ar        69.3045921366       76.4765123084       72.0990234011
 Ar        72.9368464379       74.7239691194       71.0268869533
 Ar        75.6795047517       79.0069318356       72.8247901747
 Ar        70.9231857921       72.5991015081       78.7270097036
 Ar        80.1209746517       71.3026147831       74.4817866261
 Ar        73.6429574399       68.8393426144       74.4442640819
 Ar        74.0870974836       77.0336479815       80.6950106856
 Ar        80.2777743260       77.1016257906       77.8843444764
 Ar        74.1956896046       70.9854955393       77.4019497182
 Ar        76.9073546338       68.9896256881       76.3358298703
 Ar        80.0920373049       73.3206765531       77.7730764269
 Ar        77.1132341734       75.3292215962       79.1720352899
 Ar        74.1552141270       73.0825882031       80.5606940232
 Ar        72.9778335111       76.8948383381       74.2090016240
 Ar        73.4921418638       79.1073117551       77.3530684950
 Ar        75.9539359859       75.0859238469       72.8583792191
 Ar        76.3661978362       77.0067458689       75.8985612927
 Ar        73.3747265884       73.0563793801       74.3549828139
 Ar        73.8040184605       74.8919339639       77.3816192740
 Ar        76.7367113833       73.3698495387       76.1724144679
      38
 i =   201100, time =   100550.000, E =        -0.0580380681
 Ar        76.8983484257       79.0679505112       79.0137117322
 Ar        70.8294794055       70.8478864839       75.3153744682
 Ar        76.4287402760       71.5110854463       73.1188252566
 Ar        79.5083016068       75.1005572052       74.3967426526
 Ar        70.7751231557       76.7690742423       78.7191119044
 Ar        77.2912273277       71.2603773275       79.3294479139
 Ar        73.0833699471       70.6499002431       71.0907405264
 Ar        78.6534464789       77.1051090488       71.1981722381
 Ar        70.2824091559       74.8265941528       75.5786005433
 Ar        72.8388393209       81.0254344339       74.1299225647
 Ar        79.0259200242       73.4310397122       71.2684518546
 Ar        75.7806461227       73.1362926152       69.5646268753
 Ar        69.9857908345       72.8279511140       72.2592369163
 Ar        70.1489428055       78.7812776401       75.3701140229
 Ar        79.0660101251       79.0690508408       74.5653997800
 Ar        76.3612718445       81.1459571579       75.8648208000
 Ar        72.0362008688       79.1224491049       71.0766827430
 Ar        75.2464892555       77.2477081526       69.7259752945
 Ar        69.3285515025       76.4586473297       72.0767253545
 Ar        72.9219619707       74.7207991169       71.0635290556
 Ar        75.6705043941       79.0577676830       72.8264643631
 Ar        70.9439471304       72.6046897903       78.7383359150
 Ar        80.1340276478       71.3165392162       74.4857219439
 Ar        73.6940029121       68.7668369923       74.4384915151
 Ar        74.1021032491       77.0391880932       80.6630061334
 Ar        80.2803022684       77.1180284391       77.8445085161
 Ar        74.1399710081       70.9912581743       77.3873035591
 Ar        76.9563116429       68.9686800285       76.3853861182
 Ar        80.0637969774       73.3877609485       77.8004382565
 Ar        77.0808334079       75.3293035632       79.2018774337
 Ar        74.1658549649       73.1118722995       80.6466499747
 Ar        73.0319742458       76.8643514588       74.1932070798
 Ar        73.4949718569       79.0856743277       77.3215211764
 Ar        75.9937288402       75.0682197427       72.8769328372
 Ar        76.3517927838       76.9542395931       75.8666092544
 Ar        73.3601836148       73.0418806079       74.3350470808
 Ar        73.7979462051       74.9212828825       77.3853496639
 Ar        76.7059920831       73.4019675162       76.1936364489
      38
 i =   201200, time =   100600.000, E =        -0.0583017907
 Ar        76.8418470233       79.0913837068       78.9999090763
 Ar        70.7995574133       70.8137309491       75.3141987929
 Ar        76.4615195331       71.4679938485       73.1058712489
 Ar        79.4731038645       75.1419150354       74.4094495503
 Ar        70.8134636559       76.7291986793       78.7166525981
 Ar        77.3202022671       71.2675710051       79.3452324240
 Ar        73.1235036674       70.6441420366       71.0714424867
 Ar        78.6657626000       77.1282867863       71.2439933398
 Ar        70.2589136531       74.7870451131       75.5611644752
 Ar        72.8173326398       81.0468870161       74.1044400370
 Ar        78.9919171478       73.4061747934       71.2067639738
 Ar        75.7769869218       73.0859339743       69.5471359389
 Ar        70.0284957562       72.8105427827       72.2450605494
 Ar        70.0966862507       78.7840998464       75.4012520480
 Ar        79.0583446291       79.1007621564       74.5561835454
 Ar        76.3166708972       81.1745403713       75.8885237491
 Ar        72.0260768892       79.1180374860       71.0962710668
 Ar        75.2959586296       77.2671855869       69.7330623520
 Ar        69.3651800567       76.4469763522       72.0622475884
 Ar        72.8828735736       74.7243035465       71.1002836994
 Ar        75.6671491344       79.1056466033       72.8307189742
 Ar        70.9681537412       72.6182398698       78.7420223329
 Ar        80.1340029492       71.3355526455       74.4921258217
 Ar        73.7535233133       68.6981757306       74.4246391887
 Ar        74.1135733960       77.0427555801       80.6230688445
 Ar        80.2693059426       77.1369192202       77.7969220875
 Ar        74.0688548738       71.0095582180       77.3762794597
 Ar        77.0162975639       68.9517583664       76.4238682090
 Ar        80.0349485296       73.4514983590       77.8249114497
 Ar        77.0524787388       75.3269986358       79.2390792848