#     Step Nr.          Time[fs]        Kin.[a.u.]          Temp[K]            Pot.[a.u.]        Cons Qty[a.u.]        UsedTime[s]
    200010       100005.000000         0.003397186        19.865653325        -0.058194436        -0.054797250         0.000293952
    200020       100010.000000         0.003398617        19.874019085        -0.058195866        -0.054797250         0.000308260
    200030       100015.000000         0.003401650        19.891757542        -0.058198900        -0.054797250         0.000291659
    200040       100020.000000         0.003406417        19.919632395        -0.058203667        -0.054797249         0.000305014
    200050       100025.000000         0.003413023        19.958260118        -0.058210272        -0.054797249         0.000292391
    200060       100030.000000         0.003421551        20.008131518        -0.058218801        -0.054797250         0.000301097
    200070       100035.000000         0.003432046        20.069502781        -0.058229296        -0.054797250         0.000243187
    200080       100040.000000         0.003444514        20.142410272        -0.058241764        -0.054797250         0.000245160
    200090       100045.000000         0.003458934        20.226731989        -0.058256183        -0.054797250         0.000244610
    200100       100050.000000         0.003475252        20.322158213        -0.058272502        -0.054797250         0.000243859
    200110       100055.000000         0.003493438        20.428503227        -0.058290687        -0.054797249         0.000245742
    200120       100060.000000         0.003513345        20.544914858        -0.058310594        -0.054797249         0.000244921
    200130       100065.000000         0.003534824        20.670515292        -0.058332073        -0.054797249         0.000244579
    200140       100070.000000         0.003557775        20.804724115        -0.058355020        -0.054797245         0.000245462
    200150       100075.000000         0.003582013        20.946459814        -0.058379258        -0.054797246         0.000244381
    200160       100080.000000         0.003607380        21.094799221        -0.058404623        -0.054797243         0.000245914
    200170       100085.000000         0.003633705        21.248741019        -0.058430947        -0.054797241         0.000245932
    200180       100090.000000         0.003660815        21.407270619        -0.058458057        -0.054797241         0.000247896
    200190       100095.000000         0.003688523        21.569297524        -0.058485765        -0.054797242         0.000261351
    200200       100100.000000         0.003716690        21.734009644        -0.058513932        -0.054797242         0.000252766
    200210       100105.000000         0.003745177        21.900590492        -0.058542418        -0.054797241         0.000244199
    200220       100110.000000         0.003773862        22.068329739        -0.058571103        -0.054797241         0.000245231
    200230       100115.000000         0.003802626        22.236534826        -0.058599867        -0.054797241         0.000254669
    200240       100120.000000         0.003831379        22.404671633        -0.058628620        -0.054797241         0.000263144
    200250       100125.000000         0.003860046        22.572310665        -0.058657287        -0.054797241         0.000257825
    200260       100130.000000         0.003888572        22.739119929        -0.058685813        -0.054797241         0.000245632
    200270       100135.000000         0.003916885        22.904684435        -0.058714126        -0.054797241         0.000245170
    200280       100140.000000         0.003944936        23.068720812        -0.058742177        -0.054797241         0.000244530
    200290       100145.000000         0.003972707        23.231112591        -0.058769948        -0.054797241         0.000293814
    200300       100150.000000         0.004000123        23.391431068        -0.058797363        -0.054797241         0.000295435
    200310       100155.000000         0.004027147        23.549463017        -0.058824390        -0.054797243         0.000300145
    200320       100160.000000         0.004053755        23.705055907        -0.058850998        -0.054797243         0.000245673
    200330       100165.000000         0.004079858        23.857698156        -0.058877100        -0.054797242         0.000254529
    200340       100170.000000         0.004105427        24.007217806        -0.058902670        -0.054797243         0.000260249
    200350       100175.000000         0.004130370        24.153076571        -0.058927613        -0.054797243         0.000257154
    200360       100180.000000         0.004154584        24.294674460        -0.058951827        -0.054797243         0.000268986
    200370       100185.000000         0.004177980        24.431484835        -0.058975222        -0.054797242         0.000262705
    200380       100190.000000         0.004200474        24.563021711        -0.058997716        -0.054797242         0.000252776
    200390       100195.000000         0.004221934        24.688513154        -0.059019176        -0.054797242         0.000251843
    200400       100200.000000         0.004242242        24.807265191        -0.059039483        -0.054797242         0.000244039
    200410       100205.000000         0.004261271        24.918544274        -0.059058513        -0.054797242         0.000246293
    200420       100210.000000         0.004278892        25.021584287        -0.059076134        -0.054797242         0.000244990
    200430       100215.000000         0.004294967        25.115587638        -0.059092209        -0.054797242         0.000244238
    200440       100220.000000         0.004309357        25.199732982        -0.059106599        -0.054797242         0.000251373
    200450       100225.000000         0.004321918        25.273188040        -0.059119161        -0.054797243         0.000246063
    200460       100230.000000         0.004332524        25.335206612        -0.059129767        -0.054797243         0.000248708
    200470       100235.000000         0.004341016        25.384867740        -0.059138259        -0.054797243         0.000255922
    200480       100240.000000         0.004347256        25.421357909        -0.059144500        -0.054797243         0.000264718
    200490       100245.000000         0.004351123        25.443966653        -0.059148366        -0.054797243         0.000256913
    200500       100250.000000         0.004352472        25.451855590        -0.059149715        -0.054797244         0.000252815
    200510       100255.000000         0.004351200        25.444418695        -0.059148445        -0.054797245         0.000244761
    200520       100260.000000         0.004347173        25.420869279        -0.059144418        -0.054797245         0.000246484
    200530       100265.000000         0.004340262        25.380460266        -0.059137508        -0.054797245         0.000247035
    200540       100270.000000         0.004330367        25.322594838        -0.059127612        -0.054797245         0.000244820
    200550       100275.000000         0.004317398        25.246757558        -0.059114644        -0.054797245         0.000246475
    200560       100280.000000         0.004301288        25.152552139        -0.059098533        -0.054797245         0.000245071
    200570       100285.000000         0.004281976        25.039621041        -0.059079222        -0.054797245         0.000246533
    200580       100290.000000         0.004259432        24.907792267        -0.059056678        -0.054797245         0.000264177
    200590       100295.000000         0.004233612        24.756800109        -0.059030857        -0.054797245         0.000254048
    200600       100300.000000         0.004204521        24.586688216        -0.059001767        -0.054797246         0.000260900
    200610       100305.000000         0.004172171        24.397512958        -0.058969416        -0.054797245         0.000244680
    200620       100310.000000         0.004136600        24.189505743        -0.058933845        -0.054797245         0.000243178
    200630       100315.000000         0.004097884        23.963106795        -0.058895129        -0.054797245         0.000244079
    200640       100320.000000         0.004056131        23.718950916        -0.058853377        -0.054797246         0.000244800
    200650       100325.000000         0.004011478        23.457832733        -0.058808723        -0.054797246         0.000244510
    200660       100330.000000         0.003964083        23.180681088        -0.058761328        -0.054797246         0.000245662
    200670       100335.000000         0.003914153        22.888710828        -0.058711398        -0.054797245         0.000259559
    200680       100340.000000         0.003861945        22.583410739        -0.058659189        -0.054797245         0.000255079
    200690       100345.000000         0.003807710        22.266267401        -0.058604955        -0.054797245         0.000246224
    200700       100350.000000         0.003751763        21.939106395        -0.058549008        -0.054797245         0.000254118
    200710       100355.000000         0.003694451        21.603960534        -0.058491695        -0.054797245         0.000244330
    200720       100360.000000         0.003636144        21.263003075        -0.058433389        -0.054797244         0.000243478
    200730       100365.000000         0.003577245        20.918576683        -0.058374489        -0.054797244         0.000244369
    200740       100370.000000         0.003518174        20.573152616        -0.058315418        -0.054797244         0.000244630
    200750       100375.000000         0.003459373        20.229301907        -0.058256617        -0.054797243         0.000244640
    200760       100380.000000         0.003401325        19.889858447        -0.058198569        -0.054797244         0.000245412
    200770       100385.000000         0.003344462        19.557336509        -0.058141706        -0.054797244         0.000245892
    200780       100390.000000         0.003289235        19.234389467        -0.058086480        -0.054797245         0.000244371
    200790       100395.000000         0.003236100        18.923672096        -0.058033345        -0.054797245         0.000247375
    200800       100400.000000         0.003185448        18.627475742        -0.057982692        -0.054797244         0.000248016
    200810       100405.000000         0.003137669        18.348080245        -0.057934913        -0.054797244         0.000243688
    200820       100410.000000         0.003093118        18.087562504        -0.057890362        -0.054797244         0.000252035
    200830       100415.000000         0.003052110        17.847760942        -0.057849354        -0.054797244         0.000261993
    200840       100420.000000         0.003014914        17.630248662        -0.057812158        -0.054797244         0.000292990
    200850       100425.000000         0.002981790        17.436548523        -0.057779035        -0.054797245         0.000297350
    200860       100430.000000         0.002952862        17.267386904        -0.057750107        -0.054797245         0.000294182
    200870       100435.000000         0.002928239        17.123398259        -0.057725483        -0.054797245         0.000255871
    200880       100440.000000         0.002907976        17.004911675        -0.057705221        -0.054797245         0.000253587
    200890       100445.000000         0.002892078        16.911945346        -0.057689323        -0.054797245         0.000256141
    200900       100450.000000         0.002880497        16.844221025        -0.057677742        -0.054797245         0.000253747
    200910       100455.000000         0.002873138        16.801190461        -0.057670384        -0.054797245         0.000243980
    200920       100460.000000         0.002869866        16.782055007        -0.057667111        -0.054797245         0.000245110
    200930       100465.000000         0.002870506        16.785799409        -0.057667752        -0.054797245         0.000245092
    200940       100470.000000         0.002874855        16.811225655        -0.057672100        -0.054797245         0.000245691
    200950       100475.000000         0.002882678        16.856976892        -0.057679924        -0.054797246         0.000246413
    200960       100480.000000         0.002893730        16.921604070        -0.057690976        -0.054797246         0.000247085
    200970       100485.000000         0.002907762        17.003658172        -0.057705008        -0.054797246         0.000252173
    200980       100490.000000         0.002924474        17.101386474        -0.057721720        -0.054797246         0.000255180
    200990       100495.000000         0.002943589        17.213163944        -0.057740835        -0.054797246         0.000252696
    201000       100500.000000         0.002964831        17.337380141        -0.057762077        -0.054797246         0.000244369
    201010       100505.000000         0.002987930        17.472455764        -0.057785177        -0.054797246         0.000244670
    201020       100510.000000         0.003012624        17.616859322        -0.057809871        -0.054797247         0.000245932
    201030       100515.000000         0.003038664        17.769133167        -0.057835911        -0.054797247         0.000247937
    201040       100520.000000         0.003065815        17.927902847        -0.057863062        -0.054797247         0.000257044
    201050       100525.000000         0.003093865        18.091927978        -0.057891112        -0.054797247         0.000260810
    201060       100530.000000         0.003122601        18.259969357        -0.057919848        -0.054797247         0.000248347
    201070       100535.000000         0.003151862        18.431074165        -0.057949108        -0.054797247         0.000262192
    201080       100540.000000         0.003181431        18.603983475        -0.057978677        -0.054797247         0.000263095
    201090       100545.000000         0.003211137        18.777699947        -0.058008384        -0.054797247         0.000252395
    201100       100550.000000         0.003240821        18.951280643        -0.058038068        -0.054797247         0.000246604
    201110       100555.000000         0.003270355        19.123985711        -0.058067602        -0.054797247         0.000243869
    201120       100560.000000         0.003299585        19.294912467        -0.058096834        -0.054797249         0.000305234
    201130       100565.000000         0.003328369        19.463234465        -0.058125619        -0.054797249         0.000294163
    201140       100570.000000         0.003356537        19.627948411        -0.058153786        -0.054797249         0.000292670
    201150       100575.000000         0.003383943        19.788211830        -0.058181192        -0.054797249         0.000245111
    201160       100580.000000         0.003410445        19.943185904        -0.058207694        -0.054797249         0.000244619
    201170       100585.000000         0.003435899        20.092031484        -0.058233148        -0.054797250         0.000245363
    201180       100590.000000         0.003460161        20.233909047        -0.058257410        -0.054797250         0.000245571
    201190       100595.000000         0.003483089        20.367982325        -0.058280338        -0.054797250         0.000246182
    201200       100600.000000         0.003504541        20.493429495        -0.058301791        -0.054797250         0.000245462
    201210       100605.000000         0.003524381        20.609448637        -0.058321631        -0.054797250         0.001224212
    201220       100610.000000         0.003542475        20.715255171        -0.058339725        -0.054797250         0.000261974
    201230       100615.000000         0.003558703        20.810151690        -0.058355954        -0.054797251         0.000252115
    201240       100620.000000         0.003572966        20.893555057        -0.058370217        -0.054797251         0.000259428
    201250       100625.000000         0.003585118        20.964618248        -0.058382370        -0.054797251         0.000244941
    201260       100630.000000         0.003595065        21.022782232        -0.058392316        -0.054797252         0.000263167
    201270       100635.000000         0.003602728        21.067596465        -0.058399980        -0.054797252         0.000244820
    201280       100640.000000         0.003608051        21.098724264        -0.058405303        -0.054797252         0.000244020
    201290       100645.000000         0.003611000        21.115966738        -0.058408251        -0.054797252         0.000245190
    201300       100650.000000         0.003611584        21.119382850        -0.058408835        -0.054797250         0.000245171
    201310       100655.000000         0.003609829        21.109121721        -0.058407080        -0.054797250         0.000244890
    201320       100660.000000         0.003605769        21.085379968        -0.058403020        -0.054797250         0.000244409
    201330       100665.000000         0.003599494        21.048684284        -0.058396744        -0.054797250         0.000243488
    201340       100670.000000         0.003591167        20.999991270        -0.058388421        -0.054797254         0.000246393
    201350       100675.000000         0.003580981        20.940425733        -0.058378234        -0.054797253         0.000244902
    201360       100680.000000         0.003569072        20.870785281        -0.058366325        -0.054797253         0.000244239
    201370       100685.000000         0.003555735        20.792793012        -0.058352986        -0.054797252         0.000245261
    201380       100690.000000         0.003541196        20.707775424        -0.058338447        -0.054797252         0.000244670
    201390       100695.000000         0.003525763        20.617526345        -0.058323014        -0.054797251         0.000244982
    201400       100700.000000         0.003509775        20.524033510        -0.058307026        -0.054797251         0.000246914
    201410       100705.000000         0.003493595        20.429421463        -0.058290846        -0.054797251         0.000244600
    201420       100710.000000         0.003477602        20.335898914        -0.058274853        -0.054797251         0.000244210
    201430       100715.000000         0.003462199        20.245825154        -0.058259449        -0.054797250         0.000244450
    201440       100720.000000         0.003447755        20.161364501        -0.058245005        -0.054797250         0.000244319
    201450       100725.000000         0.003434622        20.084567160        -0.058231872        -0.054797249         0.000246013
    201460       100730.000000         0.003423134        20.017388934        -0.058220383        -0.054797249         0.000244390
    201470       100735.000000         0.003413589        19.961569971        -0.058210838        -0.054797249         0.000244169
    201480       100740.000000         0.003406272        19.918785724        -0.058203521        -0.054797249         0.000245200
    201490       100745.000000         0.003401397        19.890276240        -0.058198646        -0.054797250         0.000245251
    201500       100750.000000         0.003399084        19.876752000        -0.058196333        -0.054797249         0.000244410
    201510       100755.000000         0.003399369        19.878416608        -0.058196617        -0.054797249         0.000254610
    201520       100760.000000         0.003402221        19.895097518        -0.058199470        -0.054797249         0.000252846
    201530       100765.000000         0.003407564        19.926341248        -0.058204813        -0.054797249         0.000260770
    201540       100770.000000         0.003415285        19.971490643        -0.058212532        -0.054797247         0.000244811
    201550       100775.000000         0.003425166        20.029272091        -0.058222414        -0.054797247         0.000245000
    201560       100780.000000         0.003436942        20.098130178        -0.058234189        -0.054797247         0.000245001
    201570       100785.000000         0.003450312        20.176315691        -0.058247560        -0.054797248         0.000243629
    201580       100790.000000         0.003464949        20.261908301        -0.058262197        -0.054797248         0.000243939
    201590       100795.000000         0.003480507        20.352883783        -0.058277755        -0.054797248         0.000244690
    201600       100800.000000         0.003496633        20.447186855        -0.058293881        -0.054797248         0.000242907
    201610       100805.000000         0.003512969        20.542712930        -0.058310217        -0.054797248         0.000258807
    201620       100810.000000         0.003529173        20.637468552        -0.058326421        -0.054797249         0.000245141
    201630       100815.000000         0.003544926        20.729587103        -0.058342175        -0.054797249         0.000246773
    201640       100820.000000         0.003559937        20.817369856        -0.058357186        -0.054797249         0.000247816
    201650       100825.000000         0.003573949        20.899306873        -0.058371198        -0.054797249         0.000246954
    201660       100830.000000         0.003586742        20.974112180        -0.058383991        -0.054797249         0.000254058
    201670       100835.000000         0.003598135        21.040739421        -0.058395385        -0.054797249         0.000257545
    201680       100840.000000         0.003608007        21.098466175        -0.058405256        -0.054797248         0.000258227
    201690       100845.000000         0.003616259        21.146718012        -0.058413507        -0.054797248         0.000261913
    201700       100850.000000         0.003622819        21.185080381        -0.058420067        -0.054797248         0.000250951
    201710       100855.000000         0.003627665        21.213421088        -0.058424914        -0.054797248         0.000244299
    201720       100860.000000         0.003630812        21.231819205        -0.058428060        -0.054797248         0.000244470
    201730       100865.000000         0.003632306        21.240559488        -0.058429554        -0.054797248         0.000244990
    201740       100870.000000         0.003632222        21.240066427        -0.058429470        -0.054797248         0.000245100
    201750       100875.000000         0.003630645        21.230842993        -0.058427893        -0.054797248         0.000245281
    201760       100880.000000         0.003627703        21.213639831        -0.058424950        -0.054797247         0.000245371
    201770       100885.000000         0.003623511        21.189129098        -0.058420758        -0.054797247         0.000245882
    201780       100890.000000         0.003618179        21.157946784        -0.058415426        -0.054797247         0.000251312
    201790       100895.000000         0.003611835        21.120850670        -0.058409082        -0.054797247         0.000248618
    201800       100900.000000         0.003604612        21.078611454        -0.058401858        -0.054797247         0.000256333
    201810       100905.000000         0.003596639        21.031989796        -0.058393886        -0.054797247         0.000243367
    201820       100910.000000         0.003588040        20.981706116        -0.058385287        -0.054797247         0.000244379
    201830       100915.000000         0.003578926        20.928406416        -0.058376172        -0.054797246         0.000243276
    201840       100920.000000         0.003569404        20.872726720        -0.058366650        -0.054797247         0.000243679
    201850       100925.000000         0.003559580        20.815278965        -0.058356826        -0.054797247         0.000243449
    201860       100930.000000         0.003549497        20.756317151        -0.058346743        -0.054797247         0.000244159
    201870       100935.000000         0.003539214        20.696188280        -0.058336461        -0.054797247         0.000244089
    201880       100940.000000         0.003528773        20.635128767        -0.058326019        -0.054797247         0.000245201
    201890       100945.000000         0.003518193        20.573260472        -0.058315439        -0.054797247         0.000245973
    201900       100950.000000         0.003507486        20.510651069        -0.058304733        -0.054797247         0.000245432
    201910       100955.000000         0.003496652        20.447295428        -0.058293898        -0.054797247         0.000245753
    201920       100960.000000         0.003485677        20.383116585        -0.058282923        -0.054797247         0.000247034
    201930       100965.000000         0.003474539        20.317988058        -0.058271785        -0.054797246         0.000294494
    201940       100970.000000         0.003463230        20.251857614        -0.058260476        -0.054797246         0.000306136
    201950       100975.000000         0.003451698        20.184421087        -0.058248946        -0.054797248         0.000293110
    201960       100980.000000         0.003439930        20.115605391        -0.058237178        -0.054797248         0.000253837
    201970       100985.000000         0.003427857        20.045007436        -0.058225105        -0.054797248         0.000253116
    201980       100990.000000         0.003415467        19.972550730        -0.058212712        -0.054797245         0.000292310
    201990       100995.000000         0.003402735        19.898099636        -0.058199980        -0.054797245         0.000301877
    202000       101000.000000         0.003389642        19.821537922        -0.058186889        -0.054797247         0.000293561
    202010       101005.000000         0.003376173        19.742776181        -0.058173420        -0.054797247         0.000253757
    202020       101010.000000         0.003362309        19.661703060        -0.058159556        -0.054797247         0.000260530
    202030       101015.000000         0.003348067        19.578420662        -0.058145314        -0.054797247         0.000253517
    202040       101020.000000         0.003333481        19.493126023        -0.058130728        -0.054797247         0.000245211
    202050       101025.000000         0.003318603        19.406121337        -0.058115850        -0.054797247         0.000244520
    202060       101030.000000         0.003303502        19.317818754        -0.058100749        -0.054797247         0.000244380
    202070       101035.000000         0.003288269        19.228740519        -0.058085516        -0.054797247         0.000245191
    202080       101040.000000         0.003273011        19.139514755        -0.058070258        -0.054797247         0.000244680
    202090       101045.000000         0.003257864        19.050943102        -0.058055109        -0.054797245         0.000244179
    202100       101050.000000         0.003242999        18.964013498        -0.058040243        -0.054797245         0.000244530
    202110       101055.000000         0.003228555        18.879552902        -0.058025800        -0.054797245         0.000252906
    202120       101060.000000         0.003214702        18.798543196        -0.058011948        -0.054797246         0.000254588
    202130       101065.000000         0.003201614        18.722010337        -0.057998861        -0.054797247         0.000269977
    202140       101070.000000         0.003189460        18.650935776        -0.057986706        -0.054797247         0.000254047
    202150       101075.000000         0.003178423        18.586396902        -0.057975670        -0.054797247         0.000254919
    202160       101080.000000         0.003168692        18.529495025        -0.057965939        -0.054797246         0.000244240
    202170       101085.000000         0.003160470        18.481412162        -0.057957717        -0.054797247         0.000244049
    202180       101090.000000         0.003153916        18.443084970        -0.057951163        -0.054797247         0.000244731
    202190       101095.000000         0.003149183        18.415412100        -0.057946430        -0.054797247         0.000244620
    202200       101100.000000         0.003146414        18.399217391        -0.057943661        -0.054797247         0.000244181
    202210       101105.000000         0.003145724        18.395184297        -0.057942971        -0.054797247         0.000269687
    202220       101110.000000         0.003147207        18.403858121        -0.057944454        -0.054797246         0.000253877
    202230       101115.000000         0.003150967        18.425843160        -0.057948213        -0.054797246         0.000258867
    202240       101120.000000         0.003157025        18.461266047        -0.057954269        -0.054797244         0.000244009
    202250       101125.000000         0.003165368        18.510055289        -0.057962612        -0.054797244         0.000245301
    202260       101130.000000         0.003175963        18.572013589        -0.057973208        -0.054797244         0.000244129
    202270       101135.000000         0.003188726        18.646644001        -0.057985970        -0.054797244         0.000243527
    202280       101140.000000         0.003203562        18.733400596        -0.058000806        -0.054797244         0.000245021