      38
 i =        0, time =        0.000, E =        -0.0621020546
 Ar        79.5837259074       72.4701495086       77.8419662106
 Ar        69.9116422173       76.9357725017       77.4184524938
 Ar        71.7581703697       74.0170063957       71.8965344553
 Ar        76.5707904518       71.7950097065       72.1072715126
 Ar        75.5840019946       76.8005741477       80.6483923964
 Ar        72.5626429855       69.8990580081       76.8780649858
 Ar        70.4162740928       77.5298504915       72.1580337895
 Ar        77.9180017304       74.4818401015       69.8323860217
 Ar        73.4292095483       78.2049902936       77.8927284875
 Ar        79.5971828028       78.6902064391       75.8577621087
 Ar        74.4159980055       73.1994258523       69.3516076037
 Ar        73.0937182814       76.7092252191       69.6211465341
 Ar        71.2538291496       79.6289243117       75.1633968139
 Ar        76.9327251450       79.5068540022       78.3823537148
 Ar        80.0883577828       73.0642274983       72.5815475063
 Ar        80.9259028426       75.1633003108       75.5869155351
 Ar        77.4373570146       80.1009419919       73.1219350143
 Ar        76.5957310052       77.9916414735       70.1019249486
 Ar        74.7728963526       80.9175895568       75.6465176218
 Ar        73.9326282319       78.7976426581       72.6450298050
 Ar        78.7452483157       76.5756429689       72.8557668612
 Ar        72.0819982697       75.5181598985       80.1676139784
 Ar        73.0672748552       70.4931459978       71.6176462853
 Ar        69.0740971575       74.8366996892       74.4130844650
 Ar        76.9062817187       73.2907747810       80.3788534660
 Ar        78.7461708505       70.3710756883       74.8366031862
 Ar        71.2547516844       73.4243570311       77.1442331389
 Ar        70.4028171974       71.3097935610       74.1422378914
 Ar        75.2271036475       69.0824104432       74.3534823783
 Ar        76.0673717682       71.2023573419       77.3549701951
 Ar        73.4042689950       72.0083585265       79.8980750515
 Ar        76.0829437064       77.3808947127       75.3727740475
 Ar        78.2418296304       75.9829936044       78.1034655448
 Ar        75.2507138846       75.2951566024       72.3864956769
 Ar        77.3968223013       73.8933798128       75.1049516845
 Ar        72.6031776988       76.1066201873       74.8950483156
 Ar        74.7492861155       74.7048433977       77.6135043232
 Ar        73.9170562937       72.6191052874       74.6272259525
      38
 i =     1000, time =      500.000, E =        -0.0596148695
 Ar        79.8946570348       72.5608187699       77.9921814003
 Ar        69.7517889999       76.8070334898       77.1715918412
 Ar        71.5823035999       73.8674776173       71.7529450170
 Ar        76.8273567451       71.6028977806       72.2265730616
 Ar        75.6337898800       76.7729832633       80.6504072838
 Ar        72.4974043552       69.7143553586       77.2367864003
 Ar        70.1747344794       77.3172127753       72.1347204259
 Ar        77.8339610707       74.3303219520       69.7242177451
 Ar        73.2303509955       78.3456580240       77.8274976529
 Ar        79.6421885837       79.0149503690       76.0412787784
 Ar        74.2254978703       73.2295568157       69.0627790168
 Ar        73.0407230299       76.7970289836       69.7722667338
 Ar        71.1061053582       79.7549359612       75.0084154138
 Ar        76.7912499276       79.5050317795       78.4488624310
 Ar        80.2540289707       73.2925273474       72.4896614372
 Ar        81.3545496596       75.3347684856       75.6747895880
 Ar        77.3196458252       80.0931175648       73.0861847422
 Ar        76.6549567161       77.8891864215       70.1727013924
 Ar        74.8030206057       81.0336559893       75.6638892261
 Ar        73.9016470465       78.7363110368       72.7110199296
 Ar        78.8061692554       76.6818291386       72.9826050824
 Ar        71.9257186888       75.6767817030       80.0944660943
 Ar        73.3773734287       70.5849348983       71.4094080353
 Ar        68.5968489572       74.5895485732       74.3994809347
 Ar        77.0282483339       73.2638535383       80.0628183991
 Ar        79.0106588969       70.3903832003       74.9349833358
 Ar        71.1045787158       73.2589431177       77.1538819340
 Ar        70.5918987724       71.1792142988       74.0910148250
 Ar        75.0025456756       69.0175595407       74.4354358410
 Ar        76.0407885881       71.3107608305       77.2394667133
 Ar        73.3369970123       72.1478450717       80.0853252930
 Ar        76.0370569868       77.3333801936       75.4105825168
 Ar        78.6525621702       76.1114290297       78.1123668961
 Ar        75.3559009947       75.2171213917       72.4662737099
 Ar        77.5140894522       73.9376429245       75.3718133206
 Ar        72.4798987058       75.9864349409       74.7490564802
 Ar        74.6338247917       74.7934175191       77.6466676020
 Ar        73.9848798197       72.5190903047       74.5055834688
      38
 i =     2000, time =     1000.000, E =        -0.0601457606
 Ar        80.1300109258       72.7770151220       77.7157402640
 Ar        69.5886704777       76.8792656861       76.9811029369
 Ar        71.8879867994       73.9124337352       71.9490079146
 Ar        76.6240717803       71.8350801293       72.3205025201
 Ar        75.3166564699       76.7399438908       80.4447877845
 Ar        72.5388746444       70.0278220337       77.1173585672
 Ar        69.9788188128       77.3160162427       72.3024385242
 Ar        78.0901815822       74.3740640264       69.9953055289
 Ar        73.3261825939       78.0920784963       77.6320256630
 Ar        79.5830803718       78.8979413939       75.8323204894
 Ar        74.4691851869       73.4010196287       69.2166063660
 Ar        72.9001039997       76.7000496503       69.7275901875
 Ar        71.0877841306       79.5226234571       75.0224845448
 Ar        76.7349897064       79.6481119727       78.4558056471
 Ar        80.2760359607       73.1043212336       72.8490066056
 Ar        81.0122935835       75.5342197024       75.5461921559
 Ar        77.3907514389       80.3408891326       73.1588417881
 Ar        76.5185767735       77.8541659846       70.1632881636
 Ar        74.4840983913       80.9599835297       75.6156287862
 Ar        73.8906670672       78.6756911575       72.7150426125
 Ar        78.7695077919       76.7099517254       72.9373452827
 Ar        71.7581916848       75.6358541590       79.9611690580
 Ar        73.2744204406       70.4763545488       71.4957297706
 Ar        69.1462034627       74.1576136294       74.1835267834
 Ar        77.0675469131       73.4215210173       80.3549077529
 Ar        78.8804287695       70.4999836870       75.0357286959
 Ar        71.2609377012       73.4328719221       77.1064739704
 Ar        70.7074137801       70.7883210037       74.1130888376
 Ar        75.2353712187       68.9916004625       74.3715612085
 Ar        76.1740756291       70.9780233089       77.5331427256
 Ar        73.5301842087       72.2821401360       79.9176807429
 Ar        76.1389790913       77.4552982623       75.3872911361
 Ar        78.1201063892       76.1590539091       78.1741637870
 Ar        75.1800387236       75.2469609621       72.4039274496
 Ar        77.5517621780       73.9473345385       75.1766686538
 Ar        72.5042908718       76.0740290764       74.8455008943
 Ar        74.9025029943       74.6368856919       77.4835543549
 Ar        73.9690174550       72.5134657548       74.7574618455
      38
 i =     3000, time =     1500.000, E =        -0.0601934924
 Ar        79.5825154066       72.7438448256       77.7753484742
 Ar        69.6503828466       76.6217642321       76.9440048399
 Ar        71.9110302589       73.7032616623       71.7860569191
 Ar        76.9363806449       71.7205632749       72.1321389236
 Ar        75.2462005641       76.7508163219       80.7274163424
 Ar        73.0501330823       69.7466571421       77.1726820996
 Ar        70.2432070068       77.1106668750       72.2610504559
 Ar        78.3796600517       74.4436975730       70.0196882403
 Ar        73.0918086371       78.2327292803       77.7752427226
 Ar        79.2566024526       79.1598599962       75.8973043398
 Ar        74.8854054898       73.2957068856       69.4525635768
 Ar        72.8296298885       76.6520448476       69.7308315550
 Ar        71.0473123806       79.6713621458       75.0786561055
 Ar        76.5976216379       79.6500876341       78.3330243998
 Ar        80.2727077663       73.0146648448       72.9442807544
 Ar        80.8921803871       75.6046914816       75.4963718352
 Ar        77.1056137460       80.1916629575       72.9421850345
 Ar        76.3401300118       78.0775352268       69.9389653241
 Ar        74.6183275251       80.9807216812       75.5982667863
 Ar        73.6068667645       79.0028444671       72.5338443219
 Ar        78.7998883375       76.8775926801       72.8785696353
 Ar        71.6106477934       75.6246218498       80.0238177373
 Ar        73.3960073973       70.1504940410       71.4435353628
 Ar        69.1379444726       74.1820010719       74.2748209130
 Ar        77.2328390361       73.5295778847       80.5379367275
 Ar        78.7157324906       70.2368122917       74.9791529079
 Ar        71.3624687208       73.1116036885       77.0124103159
 Ar        70.6778711462       70.7348330253       74.0934219082
 Ar        75.3280669719       69.0087835272       74.5265451102
 Ar        76.2782004452       71.4661730544       77.5690569711
 Ar        73.4721576103       72.3225495104       80.0960578604
 Ar        75.9322235509       77.5328667383       75.4378693137
 Ar        78.2479537622       76.2795745697       78.0806182473
 Ar        75.3805944133       75.3185488267       72.3879697407
 Ar        77.4648111767       73.9842505304       75.0999010392
 Ar        72.6566373213       75.9257910156       74.8151737098
 Ar        74.6429820627       74.8031003765       77.6070888373
 Ar        74.1192567423       72.5356419630       74.5961306114
      38
 i =     4000, time =     2000.000, E =        -0.0595008419
 Ar        79.7014278764       72.7731312759       77.8511388629
 Ar        69.8621806177       76.4814574026       77.0638656263
 Ar        71.8805301376       73.6018773666       71.7569100621
 Ar        76.9270929322       71.8207454679       72.0888034565
 Ar        75.1638220641       76.9416529546       80.9273314288
 Ar        72.7579105077       69.5481724010       77.4701345378
 Ar        70.1837206565       77.1572829270       72.1708625421
 Ar        78.3854817044       74.7545840548       70.0248790964
 Ar        73.0626108035       78.3507653172       77.9117150095
 Ar        79.0515921460       79.3310271791       75.8694096672
 Ar        74.6717469233       72.9485011696       69.2071557075
 Ar        73.0332190146       76.2921151735       69.4490784747
 Ar        70.8086534683       79.5906424384       75.0697036469
 Ar        76.3598425127       79.5723032504       78.7329979513
 Ar        80.3928186281       73.2121769228       72.9299434720
 Ar        80.9996349799       75.5841157168       75.9294597935
 Ar        76.8934059611       80.2459763123       72.6697148097
 Ar        76.5487446821       77.8406268911       69.7173965412
 Ar        74.5086724957       81.0531623933       75.5666963291
 Ar        73.6139627738       78.6369558051       72.5590768892
 Ar        78.6848817673       76.9251477896       72.9344878538
 Ar        71.8417329443       75.4914183111       80.0499460847
 Ar        73.6723878050       70.2415917230       71.3895704992
 Ar        69.0215331875       74.0937505246       74.1947378024
 Ar        77.0416331131       73.6430772472       80.5917550008
 Ar        79.0190272380       70.3920340292       75.1568585007
 Ar        71.5385918078       73.1940316404       77.1257120511
 Ar        71.1444715275       70.7255657082       74.1923630552
 Ar        75.4548303662       68.9296387096       74.4681536655
 Ar        76.0698977522       71.5196232730       77.3242456679
 Ar        73.5801253083       72.2025230238       80.2252554203
 Ar        75.8146942896       77.6889860557       75.2362970919
 Ar        78.0906095160       76.2917207031       78.0594996008
 Ar        75.3498057367       75.3026503380       72.2327565425
 Ar        77.4437660313       74.1943047001       75.0442307672
 Ar        72.6037622475       75.8084573613       74.7620472886
 Ar        74.5990066615       74.9874795411       77.6668394342
 Ar        74.2221718151       72.6307269020       74.3789697682
      38
 i =     5000, time =     2500.000, E =        -0.0602702521
 Ar        79.6387960945       73.0298433443       78.0954912645
 Ar        69.6424148398       76.4729894980       77.1959816241
 Ar        72.0217066140       73.5910474218       71.7460298546
 Ar        76.9381496460       71.7996230022       72.2579206647
 Ar        75.1599615083       76.9263907181       80.8515018807
 Ar        72.8371784821       69.6127884782       77.3375527827
 Ar        70.1356194512       76.8660879921       71.9278632306
 Ar        78.2670029137       74.4797901375       69.8758013564
 Ar        73.0886473373       77.9952378254       77.7492226962
 Ar        78.9823009218       79.3003222271       75.8076426637
 Ar        74.9875964118       73.1323272807       69.2128900762
 Ar        72.9797149589       76.4046407857       69.3313293896
 Ar        71.0446075208       79.1819582026       74.7774122820
 Ar        76.4180553700       79.9168476482       78.4183100216
 Ar        80.4483779928       73.6986627999       72.9669757777
 Ar        80.8274770958       76.0518058349       75.8016264685
 Ar        76.9194185184       80.2127085630       72.8788361730
 Ar        76.4493488485       77.9372566341       69.9322732874
 Ar        74.2485300929       80.8670363021       75.4295755447
 Ar        73.6694190630       78.5657417751       72.2291828125
 Ar        78.6006242019       76.8807147389       72.9438795102
 Ar        71.8471397303       75.3191590133       80.0820144561
 Ar        73.6766402859       70.3157062727       71.6164686341
 Ar        69.4630078213       73.9343344841       74.3532826814
 Ar        76.9435270983       73.7589886778       80.3928804345
 Ar        78.9454979825       70.7899766868       75.0025924599
 Ar        71.5295307780       73.0955688632       77.1146341133
 Ar        71.0839274717       70.6230161850       74.2127687377
 Ar        75.4714458496       69.2903140526       74.6563175687
 Ar        76.2605031817       71.2772677250       77.6517202033
 Ar        73.4716937267       72.0051857402       79.9640799964
 Ar        75.7611728195       77.3660424061       75.1864279467
 Ar        78.0359985260       76.5764538758       78.3087682321
 Ar        75.3126800289       75.2466164627       72.3171035057
 Ar        77.4974145108       74.2150841706       75.3069837029
 Ar        72.5153427560       75.9230655305       74.7501388995
 Ar        74.6881356511       74.6720560431       77.6714083578
 Ar        74.1913938991       72.6673426012       74.6451107078
      38
 i =     6000, time =     3000.000, E =        -0.0597748334
 Ar        79.9287532838       73.4186396399       78.0510620847
 Ar        69.6935429810       76.3995752012       77.0697473509
 Ar        72.1225647655       73.5109182535       71.8052854636
 Ar        77.1396970339       72.0793203467       72.3407819673
 Ar        75.1579014809       77.2298209369       80.5545665434
 Ar        73.0613073632       69.6778099850       77.1490787496
 Ar        70.3276885933       76.7118420747       71.7494886897
 Ar        78.4372509176       74.6452977754       69.8895318770
 Ar        72.8441629502       78.0887704669       77.5700483970
 Ar        79.0841060339       79.5085919911       75.8971331880
 Ar        74.8880156891       73.1118530929       69.2970426259
 Ar        73.0705272451       76.3719820006       69.3769862668
 Ar        70.6042730080       79.0182581167       74.7485883008
 Ar        76.1534832579       79.9554174274       78.2111249747
 Ar        80.3606543866       73.5760759075       72.9420071248
 Ar        80.7098538120       76.0714089729       75.7144448374
 Ar        76.9888225204       80.3060051099       72.8575421375
 Ar        76.4092529692       77.8339664439       69.8680714815
 Ar        73.9139206448       80.8242355660       75.2643664944
 Ar        73.5304232907       78.5486103965       72.3457535092
 Ar        78.7006248548       76.9814046440       72.8580964568
 Ar        71.7424996534       75.4071986818       80.1500288947
 Ar        73.6516271279       70.1574656307       71.4810256786
 Ar        69.0576366133       74.1211863068       74.0590038622
 Ar        76.9173555953       73.6322040040       80.8000269689
 Ar        79.2920375334       70.9330669021       75.2760899330
 Ar        71.1317150606       72.8477967254       77.2363471652
 Ar        70.9192463532       70.7025124083       74.1162299470
 Ar        75.9163131079       68.9803824480       74.4285733131
 Ar        76.5218794134       71.3794756123       77.7609469129
 Ar        73.4849922889       71.8759737327       80.3554099361
 Ar        75.9321830516       77.4706000898       75.4129977287
 Ar        78.0517057682       76.5675724363       78.1997348178
 Ar        75.2916184844       75.3408032843       72.4286413839
 Ar        77.4422542138       74.1813881523       75.2802058539
 Ar        72.5814022102       75.7307453670       74.7593606330
 Ar        74.7607601033       74.6003107018       77.8031435465
 Ar        74.1779463401       72.2015131678       74.8914849033
      38
 i =     7000, time =     3500.000, E =        -0.0600904671
 Ar        79.7433422677       73.1842311822       78.3551593383
 Ar        69.3766479559       76.0453128819       77.1951397587
 Ar        72.1820972977       73.5193146364       71.8125859619
 Ar        77.1663035029       71.8122806026       72.2327967709
 Ar        75.0165775484       77.1698056230       80.5295528674
 Ar        73.3257858374       69.6622507127       77.2479355102
 Ar        70.2944591218       76.7909533964       71.7880487254
 Ar        78.2446084596       74.7102259148       70.1167417457
 Ar        72.7659230555       78.1752768519       77.5912095052
 Ar        78.9888693421       79.3887184061       75.8579474704
 Ar        75.0223454714       72.8475760544       69.4499193663
 Ar        73.2574520415       76.0669449493       69.4908408073
 Ar        70.2619221951       79.0592238469       74.7690377107
 Ar        76.0090301856       79.9632102402       78.1256859421
 Ar        80.4483221770       73.5945883583       72.9099084286
 Ar        81.0167640532       76.0401660100       75.8468287755
 Ar        76.6095780230       80.3143294030       72.8602724983
 Ar        76.4976072052       78.0346155222       69.9051569175
 Ar        73.6311796722       81.0190892121       75.1224195474
 Ar        73.5412003237       78.3120495029       72.4996463030
 Ar        78.5115531016       77.0495852933       72.9684071615
 Ar        71.8094227999       75.3756022562       79.9694528416
 Ar        73.9533240823       70.0411215837       71.8263733974
 Ar        69.0610060892       74.0729787980       74.0096750523
 Ar        76.9059204990       73.8994345145       80.5873605057
 Ar        79.4422534942       70.9002542110       75.4099952871
 Ar        71.5254428855       72.9005609263       77.1192149384
 Ar        70.8889934623       70.7624478211       74.1903048570
 Ar        76.5502311985       68.8906962163       74.3077879556
 Ar        76.4280458215       71.5527715168       77.6042440025
 Ar        73.6957806787       72.1829064007       79.9640515370
 Ar        75.6306844711       77.6603745288       75.3629402504
 Ar        77.7826885683       76.5647354612       78.1925194884
 Ar        75.4500774686       75.1291211420       72.3561269746
 Ar        77.6379982628       74.3113934257       75.3556696737
 Ar        72.3323293843       75.6625159105       74.8269305464
 Ar        74.6059025640       74.8638292278       77.5707605401
 Ar        74.3883294321       72.4695074598       74.6713510393
      38
 i =     8000, time =     4000.000, E =        -0.0594241543
 Ar        79.7244790191       73.3696921936       78.3377487949
 Ar        69.2725360834       76.2237251215       77.0758901896
 Ar        72.1045519122       73.2090438053       71.8195677821
 Ar        77.3922512671       71.7752855232       72.4653015642
 Ar        74.7638177682       77.3430221551       80.4257348613
 Ar        73.4615919524       69.4885212859       76.6781864342
 Ar        70.0235766679       76.4701484525       71.5311414020
 Ar        78.1375472547       74.6691479883       69.9544159404
 Ar        72.6031536684       78.0133174573       77.6758406556
 Ar        78.9075060503       79.4390461192       75.7314317844
 Ar        75.0291990583       72.4377154863       69.4913230791
 Ar        73.4045940251       75.9966914944       69.3005682032
 Ar        70.3649379486       78.9522816919       74.8490241955
 Ar        75.8163021747       80.0207529124       78.0448245812
 Ar        80.7927028333       74.0390485990       73.0222319989
 Ar        80.8303923690       75.9877282705       76.1348344111
 Ar        76.5438268876       80.4772287749       73.1830731339
 Ar        76.3778073723       78.0344732990       70.3662359685
 Ar        73.4590977297       80.7214452346       75.3823317068
 Ar        73.2391471099       78.7350160038       72.2275915984
 Ar        78.6834380471       76.9691702332       72.8810837547
 Ar        71.5970971437       75.2983231966       79.9529130104
 Ar        74.1264557607       69.9142575528       72.0674250528
 Ar        69.2735973311       73.7522427674       74.2137207017
 Ar        76.8470524949       74.1643340557       80.4531730334
 Ar        79.7232356586       71.0864524292       75.2552108973
 Ar        71.4924152259       73.1876028068       76.9570101048
 Ar        71.1244739588       70.4964606959       74.1888204545
 Ar        76.4623174761       68.9246585156       74.9567708664
 Ar        76.6659692645       71.5181799744       77.4793595598
 Ar        73.7755087214       72.1940417705       79.9087011247
 Ar        75.5092418329       77.6512114993       75.1840031137
 Ar        77.9800592026       76.8452473601       78.3195088378
 Ar        75.3031215213       75.1548265832       72.3475622106
 Ar        77.6182858969       74.2638822948       75.2252470144
 Ar        72.4035108544       75.7638029874       74.6606071435
 Ar        74.7271591153       74.9105911855       77.5360948554
 Ar        74.4380413419       72.5013822236       74.7154899786
      38
 i =     9000, time =     4500.000, E =        -0.0594076071
 Ar        79.8432222126       73.6612327199       78.2621566471
 Ar        69.4260798773       76.0546061246       76.8492316285
 Ar        72.2007249405       73.0177377233       71.7949224412
 Ar        77.4184577318       72.1384628636       72.6488995059
 Ar        74.8327881160       77.3175125844       80.6342193338
 Ar        73.2494431067       69.6282951686       77.0627911503
 Ar        70.3489501947       76.2270203316       71.5918016826
 Ar        78.2113171791       74.6672740533       69.9752882437
 Ar        72.5506885205       77.8901911366       77.3521081614
 Ar        78.9989911979       79.6669909990       75.9478669260
 Ar        75.0396099474       72.4308775973       69.5696832150
 Ar        73.1597911486       75.7901199684       69.3720520711
 Ar        70.0104899141       78.7183281871       74.1884555934
 Ar        75.9316443170       80.0358477990       78.0147569142
 Ar        80.9212124971       73.9578215464       72.8610194711
 Ar        80.8191060022       76.5249291329       75.9271634304
 Ar        76.4883030925       80.6771172204       73.1237072038
 Ar        76.1856054454       78.1237576811       70.2418057139
 Ar        73.4104352720       80.9004424825       75.2851778424
 Ar        73.1884855305       78.6053882411       72.1879619912
 Ar        78.6648666593       77.2832861062       72.9997251320
 Ar        71.7536319267       75.1853704404       80.1375762761
 Ar        74.2878378699       69.5403788833       72.2144336446
 Ar        69.1512004520       73.7150629402       74.0210887975
 Ar        76.6991994828       73.9295706555       80.7655596499
 Ar        79.8844985024       71.4505081166       75.3043957533
 Ar        71.3646919387       72.8579196661       76.9897109885
 Ar        70.9498597529       70.3912182410       73.9737634115
 Ar        76.8914297504       69.2351576995       74.8642276486
 Ar        76.7441171198       71.6196792914       77.7477031101
 Ar        73.6021389076       71.8633676244       79.9201795853
 Ar        75.6887584075       77.6508394395       75.0797518254
 Ar        77.7444794196       76.7441637970       78.1369666322
 Ar        75.3797692203       75.1980684276       72.4820021849
 Ar        77.6331957813       74.4324345602       75.4308918003
 Ar        72.4045372508       75.6903724082       74.5411986951
 Ar        74.6028872224       74.8136705535       77.6392147165
 Ar        74.3175540920       72.3649775893       74.8605409814
      38
 i =    10000, time =     5000.000, E =        -0.0592674683
 Ar        79.9102983334       74.0257746146       78.6492397262
 Ar        69.4378438428       76.0044550595       77.0490185991
 Ar        72.3929733649       73.0524745532       71.8748510533
 Ar        77.4840149238       71.8998155942       72.3696523127
 Ar        74.8141840688       77.2385209985       80.3897079098
 Ar        73.6697871319       69.5185425046       76.8799526555
 Ar        70.1980898234       76.1551321304       71.3202940341
 Ar        78.2318995926       75.0197329529       69.9847687311
 Ar        72.5205488662       78.0470255910       77.6432634304
 Ar        78.5635997488       79.6962597693       75.9118898212
 Ar        75.3832951261       72.5026310308       69.6354035642
 Ar        73.5832313041       75.6876703507       69.4280999510
 Ar        70.2117528237       78.4808396758       74.4254463996
 Ar        75.6088388489       80.2441811840       78.1856406190
 Ar        80.4346263140       74.3421352193       72.9529856965
 Ar        80.7078774584       76.4468058303       75.7628499832
 Ar        76.4926423371       80.4299160742       72.9092618058
 Ar        76.3526899823       78.0414638821       69.8393923580
 Ar        73.2446204456       80.7880187730       74.9570957580
 Ar        73.3323685403       78.0801274687       72.4841408154
 Ar        78.3688600874       77.3981655562       73.0208233508
 Ar        71.7156797840       75.2493812196       79.6895707253
 Ar        74.2230046024       69.7801868316       72.2225111523
 Ar        69.1897832146       73.4960105008       73.7796945040
 Ar        76.6638741671       74.0523196841       80.5371565099
 Ar        79.9220277877       71.5807422230       75.6440243966
 Ar        71.4205126607       72.5869162416       77.0270700497
 Ar        71.1093438927       70.2230576475       74.2820843999
 Ar        76.7884852043       69.4002909821       74.9994177743
 Ar        76.6610055737       71.7855229017       77.8103168395
 Ar        73.5224197246       71.9149410092       80.1666909680
 Ar        75.5443089837       77.5316113246       75.3701500321
 Ar        77.6858141545       76.9380243659       78.1669632102
 Ar        75.4182649612       75.0788581788       72.4374447335
 Ar        77.5875130116       74.6427519121       75.2422634823
 Ar        72.3865998639       75.4268275278       74.6625318216
 Ar        74.5753804499       74.7697765631       77.5058653189
 Ar        74.6419389994       72.4430920740       74.7824655069
      38
 i =    11000, time =     5500.000, E =        -0.0592764486
 Ar        79.8518278610       73.9065613083       78.6034957805
 Ar        69.1332216063       75.5713956400       76.8719442897
 Ar        72.3990564718       73.0578072316       71.7187608503
 Ar        77.6807432239       71.9150386002       72.5690942909
 Ar        74.3953987406       77.5532663951       80.5144054673
 Ar        73.8873275713       69.5162547158       77.1856117401
 Ar        70.4198506409       76.1048318336       71.4993876753
 Ar        78.2526089101       74.8425748877       69.7525319805
 Ar        72.3334377099       78.0105045624       77.6244258146
 Ar        78.2413916746       79.8559721907       75.7172830149
 Ar        75.3843961085       72.4266700145       69.4144323093
 Ar        73.4708922976       75.7318357296       69.0871269653
 Ar        70.2983863949       78.4172575390       74.2277798806
 Ar        75.3184121869       80.2614074442       78.1026904529
 Ar        80.4590618224       74.1799187241       72.8919621487
 Ar        80.6204786152       76.7541798959       76.1579174484
 Ar        75.9844828762       80.5817268963       72.7935213389
 Ar        76.3224061519       78.3453594327       69.6665995075
 Ar        73.2599545344       80.7443087641       75.0793006445
 Ar        73.4314966180       78.0250534283       71.9192088575
 Ar        78.3376758372       77.1886777568       72.8960002579
 Ar        71.5044721104       75.0000221146       80.1020846360
 Ar        74.5436034236       69.9556442707       71.9683634035
 Ar        69.3745549403       73.3885969623       74.1076276555
 Ar        76.6737450945       74.4574008029       80.8521691255
 Ar        79.9374184172       71.5057514602       75.7246967292
 Ar        71.5982335310       72.6953489631       76.9509099411
 Ar        71.4844875948       70.2669229440       74.1604985982
 Ar        77.0329327564       69.0182917380       74.9992785188
 Ar        76.9201630642       71.6782197589       77.9558795425