#     Step Nr.          Time[fs]        Kin.[a.u.]          Temp[K]            Pot.[a.u.]        Cons Qty[a.u.]        UsedTime[s]
         0            0.000000         0.003420161        20.000000000        -0.062102055        -0.058681894         0.000000000
        10            5.000000         0.003427975        20.045697599        -0.062099691        -0.058681895         0.000570393
        20           10.000000         0.003417224        19.982827399        -0.062090919        -0.058681897         0.000555472
        30           15.000000         0.003424937        20.027931537        -0.062075863        -0.058681896         0.000417675
        40           20.000000         0.003391331        19.831415371        -0.062054558        -0.058681894         0.000433665
        50           25.000000         0.003354936        19.618589242        -0.062027349        -0.058681894         0.000263997
        60           30.000000         0.003322371        19.428160395        -0.061994541        -0.058681892         0.000265096
        70           35.000000         0.003303176        19.315913745        -0.061956178        -0.058681892         0.000267717
        80           40.000000         0.003263221        19.082270452        -0.061912482        -0.058681892         0.000266007
        90           45.000000         0.003213407        18.790971968        -0.061863793        -0.058681891         0.000274197
       100           50.000000         0.003174947        18.566067358        -0.061810425        -0.058681891         0.000273406
       110           55.000000         0.003135756        18.336895999        -0.061752656        -0.058681891         0.000280156
       120           60.000000         0.003091430        18.077690255        -0.061690788        -0.058681891         0.000268507
       130           65.000000         0.003012368        17.615357723        -0.061625345        -0.058681890         0.000264266
       140           70.000000         0.002969492        17.364635691        -0.061556711        -0.058681890         0.000263548
       150           75.000000         0.002860451        16.726998989        -0.061485343        -0.058681890         0.000265737
       160           80.000000         0.002804196        16.398035599        -0.061411944        -0.058681890         0.000263007
       170           85.000000         0.002741004        16.028512871        -0.061336476        -0.058681890         0.000261737
       180           90.000000         0.002706367        15.825966122        -0.061259163        -0.058681889         0.000263787
       190           95.000000         0.002625200        15.351324116        -0.061180486        -0.058681889         0.000275916
       200          100.000000         0.002573387        15.048341805        -0.061101145        -0.058681889         0.000282146
       210          105.000000         0.002486226        14.538653596        -0.061021333        -0.058681888         0.000263666
       220          110.000000         0.002399860        14.033609708        -0.060942048        -0.058681888         0.000263067
       230          115.000000         0.002341791        13.694042901        -0.060863220        -0.058681888         0.000262887
       240          120.000000         0.002300020        13.449776436        -0.060785269        -0.058681888         0.000262966
       250          125.000000         0.002224293        13.006951942        -0.060708560        -0.058681887         0.000264127
       260          130.000000         0.002147718        12.559164072        -0.060633598        -0.058681887         0.000267436
       270          135.000000         0.002073781        12.126805458        -0.060560942        -0.058681887         0.000267687
       280          140.000000         0.002015103        11.783676247        -0.060490686        -0.058681887         0.000275928
       290          145.000000         0.001966354        11.498605638        -0.060423070        -0.058681887         0.000290286
       300          150.000000         0.001887554        11.037806607        -0.060358679        -0.058681886         0.000273718
       310          155.000000         0.001823996        10.666143135        -0.060297689        -0.058681886         0.000269626
       320          160.000000         0.001772366        10.364228566        -0.060240350        -0.058681886         0.000280357
       330          165.000000         0.001701210         9.948130939        -0.060186720        -0.058681886         0.000289656
       340          170.000000         0.001648439         9.639540581        -0.060137096        -0.058681886         0.000278256
       350          175.000000         0.001588138         9.286917804        -0.060091506        -0.058681886         0.000281165
       360          180.000000         0.001541881         9.016426731        -0.060050095        -0.058681886         0.000274885
       370          185.000000         0.001489258         8.708702020        -0.060012870        -0.058681886         0.000274716
       380          190.000000         0.001468457         8.587066498        -0.059979657        -0.058681886         0.000295256
       390          195.000000         0.001434218         8.386848297        -0.059950285        -0.058681886         0.000277457
       400          200.000000         0.001411337         8.253043602        -0.059924744        -0.058681886         0.000287967
       410          205.000000         0.001380458         8.072476580        -0.059902866        -0.058681886         0.000271567
       420          210.000000         0.001365952         7.987649922        -0.059884565        -0.058681887         0.000250557
       430          215.000000         0.001346048         7.871257270        -0.059869620        -0.058681887         0.000254617
       440          220.000000         0.001344656         7.863117651        -0.059857752        -0.058681887         0.000261527
       450          225.000000         0.001352309         7.907869910        -0.059848730        -0.058681887         0.000326696
       460          230.000000         0.001347656         7.880662000        -0.059842291        -0.058681887         0.000266846
       470          235.000000         0.001357330         7.937231397        -0.059838225        -0.058681887         0.000260857
       480          240.000000         0.001356836         7.934341852        -0.059836262        -0.058681887         0.000254115
       490          245.000000         0.001360855         7.957843204        -0.059836142        -0.058681888         0.000252778
       500          250.000000         0.001357294         7.937016325        -0.059837597        -0.058681888         0.000256957
       510          255.000000         0.001352359         7.908163457        -0.059840365        -0.058681888         0.000261697
       520          260.000000         0.001356534         7.932576978        -0.059844213        -0.058681888         0.000258868
       530          265.000000         0.001348866         7.887737587        -0.059848893        -0.058681888         0.000254608
       540          270.000000         0.001369110         8.006115785        -0.059854219        -0.058681888         0.000259796
       550          275.000000         0.001393572         8.149158542        -0.059859965        -0.058681888         0.000261217
       560          280.000000         0.001407951         8.233246410        -0.059865915        -0.058681889         0.000255227
       570          285.000000         0.001413399         8.265104477        -0.059871805        -0.058681889         0.000255487
       580          290.000000         0.001405715         8.220169188        -0.059877466        -0.058681889         0.000257606
       590          295.000000         0.001395597         8.161005390        -0.059882737        -0.058681889         0.000257397
       600          300.000000         0.001395747         8.161880856        -0.059887514        -0.058681889         0.000260985
       610          305.000000         0.001395897         8.162756151        -0.059891719        -0.058681889         0.000266957
       620          310.000000         0.001395302         8.159279694        -0.059895255        -0.058681890         0.000267897
       630          315.000000         0.001402795         8.203093174        -0.059898023        -0.058681890         0.000265467
       640          320.000000         0.001411218         8.252350067        -0.059899938        -0.058681889         0.000261256
       650          325.000000         0.001416146         8.281164477        -0.059900931        -0.058681889         0.000262378
       660          330.000000         0.001397210         8.170436560        -0.059900948        -0.058681889         0.000301586
       670          335.000000         0.001390207         8.129481986        -0.059899993        -0.058681889         0.000272917
       680          340.000000         0.001390808         8.132998299        -0.059898047        -0.058681889         0.000272778
       690          345.000000         0.001394303         8.153434102        -0.059895098        -0.058681889         0.000281236
       700          350.000000         0.001371277         8.018786345        -0.059891185        -0.058681889         0.000290927
       710          355.000000         0.001372781         8.027580459        -0.059886312        -0.058681889         0.000300966
       720          360.000000         0.001366484         7.990759333        -0.059880523        -0.058681890         0.000282967
       730          365.000000         0.001378934         8.063560519        -0.059873835        -0.058681890         0.000282756
       740          370.000000         0.001395350         8.159556777        -0.059866209        -0.058681890         0.000293517
       750          375.000000         0.001395395         8.159821177        -0.059857668        -0.058681890         0.000277977
       760          380.000000         0.001395327         8.159421291        -0.059848317        -0.058681890         0.000261347
       770          385.000000         0.001385584         8.102452231        -0.059838114        -0.058681890         0.000256386
       780          390.000000         0.001380636         8.073513764        -0.059827264        -0.058681891         0.000259336
       790          395.000000         0.001362944         7.970057926        -0.059815849        -0.058681891         0.000260027
       800          400.000000         0.001343255         7.854923568        -0.059803941        -0.058681891         0.000256278
       810          405.000000         0.001318337         7.709212774        -0.059791673        -0.058681891         0.000253237
       820          410.000000         0.001313650         7.681804116        -0.059779182        -0.058681891         0.000253097
       830          415.000000         0.001310092         7.660996767        -0.059766494        -0.058681891         0.000254607
       840          420.000000         0.001298446         7.592893036        -0.059753674        -0.058681891         0.000253817
       850          425.000000         0.001276373         7.463821746        -0.059740907        -0.058681891         0.000263826
       860          430.000000         0.001273159         7.445023394        -0.059728299        -0.058681890         0.000272627
       870          435.000000         0.001278307         7.475131274        -0.059715879        -0.058681890         0.000274786
       880          440.000000         0.001274705         7.454066227        -0.059703760        -0.058681890         0.000288256
       890          445.000000         0.001250832         7.314463973        -0.059692068        -0.058681890         0.000279446
       900          450.000000         0.001257829         7.355380463        -0.059680868        -0.058681890         0.000278347
       910          455.000000         0.001235153         7.222780374        -0.059670309        -0.058681889         0.000280348
       920          460.000000         0.001224436         7.160108040        -0.059660508        -0.058681888         0.000277167
       930          465.000000         0.001231543         7.201665475        -0.059651502        -0.058681888         0.000258567
       940          470.000000         0.001223449         7.154333729        -0.059643308        -0.058681888         0.000254137
       950          475.000000         0.001248206         7.299107833        -0.059635992        -0.058681888         0.000251857
       960          480.000000         0.001239524         7.248339159        -0.059629644        -0.058681888         0.000266217
       970          485.000000         0.001238357         7.241515118        -0.059624301        -0.058681888         0.000269908
       980          490.000000         0.001226657         7.173095209        -0.059620013        -0.058681888         0.000264486
       990          495.000000         0.001209496         7.072743395        -0.059616857        -0.058681888         0.000266416
      1000          500.000000         0.001206499         7.055217271        -0.059614870        -0.058681888         0.000263417
      1010          505.000000         0.001187583         6.944604637        -0.059614114        -0.058681887         0.000273307
      1020          510.000000         0.001195908         6.993287090        -0.059614620        -0.058681887         0.000282366
      1030          515.000000         0.001200327         7.019124816        -0.059616363        -0.058681887         0.000270637
      1040          520.000000         0.001204187         7.041697196        -0.059619345        -0.058681887         0.000260247
      1050          525.000000         0.001224677         7.161516295        -0.059623555        -0.058681887         0.000265767
      1060          530.000000         0.001250262         7.311131248        -0.059628957        -0.058681887         0.000261297
      1070          535.000000         0.001255119         7.339530787        -0.059635528        -0.058681886         0.000265807
      1080          540.000000         0.001269892         7.425922160        -0.059643206        -0.058681886         0.000265896
      1090          545.000000         0.001288872         7.536908174        -0.059652013        -0.058681886         0.000262327
      1100          550.000000         0.001291669         7.553265540        -0.059661797        -0.058681886         0.000283937
      1110          555.000000         0.001322506         7.733592589        -0.059672578        -0.058681886         0.000277067
      1120          560.000000         0.001318042         7.707486945        -0.059684257        -0.058681886         0.000273386
      1130          565.000000         0.001311752         7.670702054        -0.059696675        -0.058681886         0.000263846
      1140          570.000000         0.001336217         7.813769916        -0.059709894        -0.058681887         0.000264197
      1150          575.000000         0.001368748         8.003999762        -0.059723923        -0.058681887         0.000265096
      1160          580.000000         0.001380185         8.070877751        -0.059738699        -0.058681887         0.000264117
      1170          585.000000         0.001401977         8.198309218        -0.059754032        -0.058681887         0.000264596
      1180          590.000000         0.001411347         8.253106230        -0.059769941        -0.058681885         0.000269148
      1190          595.000000         0.001425982         8.338686490        -0.059786248        -0.058681885         0.000284546
      1200          600.000000         0.001434151         8.386455005        -0.059802904        -0.058681885         0.000274987
      1210          605.000000         0.001438707         8.413096662        -0.059819822        -0.058681886         0.000269776
      1220          610.000000         0.001458442         8.528498112        -0.059836945        -0.058681886         0.000264156
      1230          615.000000         0.001480190         8.655674368        -0.059854327        -0.058681886         0.000265688
      1240          620.000000         0.001502831         8.788075306        -0.059871746        -0.058681886         0.000264447
      1250          625.000000         0.001505574         8.804111783        -0.059889210        -0.058681886         0.000266197
      1260          630.000000         0.001525727         8.921959469        -0.059906633        -0.058681886         0.000263556
      1270          635.000000         0.001527281         8.931046787        -0.059923862        -0.058681886         0.000274586
      1280          640.000000         0.001557412         9.107246125        -0.059941024        -0.058681885         0.000274207
      1290          645.000000         0.001587401         9.282608228        -0.059957966        -0.058681885         0.000269097
      1300          650.000000         0.001610714         9.418937405        -0.059974715        -0.058681885         0.000270307
      1310          655.000000         0.001635401         9.563299053        -0.059991100        -0.058681885         0.000272656
      1320          660.000000         0.001671630         9.775157615        -0.060007081        -0.058681885         0.000274027
      1330          665.000000         0.001689062         9.877089746        -0.060022611        -0.058681885         0.000282707
      1340          670.000000         0.001724650        10.085196983        -0.060037616        -0.058681885         0.000274847
      1350          675.000000         0.001742827        10.191489404        -0.060052038        -0.058681885         0.000273226
      1360          680.000000         0.001787176        10.450831599        -0.060065829        -0.058681885         0.000272878
      1370          685.000000         0.001817091        10.625765453        -0.060078935        -0.058681885         0.000273307
      1380          690.000000         0.001823955        10.665902783        -0.060091271        -0.058681885         0.000285216
      1390          695.000000         0.001834431        10.727161929        -0.060102816        -0.058681885         0.000278068
      1400          700.000000         0.001846064        10.795190163        -0.060113515        -0.058681885         0.000268546
      1410          705.000000         0.001891313        11.059788883        -0.060123436        -0.058681886         0.000253926
      1420          710.000000         0.001924632        11.254627746        -0.060132614        -0.058681886         0.000247717
      1430          715.000000         0.001921302        11.235156930        -0.060140904        -0.058681886         0.000250678
      1440          720.000000         0.001949278        11.398748737        -0.060148347        -0.058681885         0.000267587
      1450          725.000000         0.001961051        11.467597691        -0.060154988        -0.058681886         0.000263817
      1460          730.000000         0.001976402        11.557365981        -0.060160809        -0.058681886         0.000254307
      1470          735.000000         0.001987907        11.624639213        -0.060165852        -0.058681886         0.000257988
      1480          740.000000         0.001995901        11.671388275        -0.060170144        -0.058681886         0.000252668
      1490          745.000000         0.002000405        11.697723139        -0.060173740        -0.058681887         0.000262787
      1500          750.000000         0.002032508        11.885455956        -0.060176673        -0.058681887         0.000263047
      1510          755.000000         0.002051887        11.998773995        -0.060178972        -0.058681887         0.000268318
      1520          760.000000         0.002039345        11.925435598        -0.060180677        -0.058681887         0.000271137
      1530          765.000000         0.002035232        11.901381011        -0.060181849        -0.058681887         0.000263277
      1540          770.000000         0.002050560        11.991017565        -0.060182566        -0.058681887         0.000254327
      1550          775.000000         0.002077439        12.148194448        -0.060182885        -0.058681887         0.000253848
      1560          780.000000         0.002072178        12.117430227        -0.060182860        -0.058681886         0.000254598
      1570          785.000000         0.002072683        12.120383038        -0.060182559        -0.058681886         0.000250617
      1580          790.000000         0.002063220        12.065049510        -0.060182052        -0.058681886         0.000252257
      1590          795.000000         0.002067591        12.090610073        -0.060181417        -0.058681885         0.000258327
      1600          800.000000         0.002083752        12.185109550        -0.060180737        -0.058681885         0.000266826
      1610          805.000000         0.002049245        11.983328335        -0.060180033        -0.058681885         0.000269746
      1620          810.000000         0.002055482        12.019801073        -0.060179406        -0.058681884         0.000254127
      1630          815.000000         0.002050300        11.989498355        -0.060178880        -0.058681883         0.000245277
      1640          820.000000         0.002080189        12.164278553        -0.060178532        -0.058681883         0.000254567
      1650          825.000000         0.002075119        12.134628006        -0.060178382        -0.058681883         0.000271217
      1660          830.000000         0.002078306        12.153263834        -0.060178438        -0.058681884         0.000268118
      1670          835.000000         0.002110951        12.344165063        -0.060178776        -0.058681881         0.000267207
      1680          840.000000         0.002094488        12.247892595        -0.060179330        -0.058681881         0.000283597
      1690          845.000000         0.002093289        12.240881156        -0.060180112        -0.058681881         0.000282026
      1700          850.000000         0.002095072        12.251308725        -0.060181140        -0.058681881         0.000286006
      1710          855.000000         0.002075983        12.139682469        -0.060182425        -0.058681881         0.000285788
      1720          860.000000         0.002095651        12.254691182        -0.060183967        -0.058681881         0.000287008
      1730          865.000000         0.002096506        12.259694234        -0.060185750        -0.058681880         0.000284667
      1740          870.000000         0.002092150        12.234223595        -0.060187751        -0.058681880         0.000276617
      1750          875.000000         0.002093540        12.242350925        -0.060189932        -0.058681881         0.000299767
      1760          880.000000         0.002104532        12.306628880        -0.060192273        -0.058681882         0.000262767
      1770          885.000000         0.002137044        12.496745245        -0.060194762        -0.058681882         0.000264846
      1780          890.000000         0.002132461        12.469945337        -0.060197297        -0.058681882         0.000254166
      1790          895.000000         0.002145212        12.544508810        -0.060199814        -0.058681882         0.000249897
      1800          900.000000         0.002150285        12.574174677        -0.060202254        -0.058681882         0.000254286
      1810          905.000000         0.002150147        12.573367079        -0.060204554        -0.058681882         0.000247447
      1820          910.000000         0.002143146        12.532429233        -0.060206656        -0.058681882         0.000245507
      1830          915.000000         0.002174843        12.717785440        -0.060208506        -0.058681882         0.000247196
      1840          920.000000         0.002194240        12.831211223        -0.060210020        -0.058681882         0.000246678
      1850          925.000000         0.002191303        12.814036466        -0.060211093        -0.058681883         0.000267647
      1860          930.000000         0.002175512        12.721697319        -0.060211661        -0.058681883         0.000282066
      1870          935.000000         0.002172072        12.701577438        -0.060211680        -0.058681883         0.000282427
      1880          940.000000         0.002153783        12.594631512        -0.060211116        -0.058681883         0.000279676
      1890          945.000000         0.002139829        12.513030269        -0.060209942        -0.058681883         0.000284117
      1900          950.000000         0.002149536        12.569797170        -0.060208114        -0.058681883         0.000287827
      1910          955.000000         0.002161039        12.637061514        -0.060205569        -0.058681883         0.000278766
      1920          960.000000         0.002166346        12.668092794        -0.060202241        -0.058681883         0.000297796
      1930          965.000000         0.002160890        12.636189473        -0.060198092        -0.058681883         0.000249997
      1940          970.000000         0.002153326        12.591960002        -0.060193108        -0.058681882         0.000250047
      1950          975.000000         0.002152203        12.585393515        -0.060187275        -0.058681882         0.000249247
      1960          980.000000         0.002120045        12.397344177        -0.060180626        -0.058681882         0.000259036
      1970          985.000000         0.002119308        12.393033561        -0.060173196        -0.058681879         0.000256836
      1980          990.000000         0.002124265        12.422016462        -0.060164911        -0.058681879         0.000266336
      1990          995.000000         0.002123455        12.417283132        -0.060155760        -0.058681879         0.000260325
      2000         1000.000000         0.002105856        12.314368403        -0.060145761        -0.058681879         0.000261377
      2010         1005.000000         0.002106979        12.320937343        -0.060134960        -0.058681879         0.000262206
      2020         1010.000000         0.002098863        12.273478495        -0.060123403        -0.058681879         0.000260606
      2030         1015.000000         0.002103420        12.300124503        -0.060111112        -0.058681879         0.000262377
      2040         1020.000000         0.002093514        12.242197783        -0.060098199        -0.058681879         0.000259917
      2050         1025.000000         0.002083517        12.183738874        -0.060084755        -0.058681878         0.000258657
      2060         1030.000000         0.002090989        12.227429528        -0.060070811        -0.058681878         0.000255778
      2070         1035.000000         0.002085811        12.197152966        -0.060056497        -0.058681878         0.000261096
      2080         1040.000000         0.002098624        12.272080754        -0.060041867        -0.058681878         0.000257927
      2090         1045.000000         0.002074746        12.132447260        -0.060026990        -0.058681878         0.000274668
      2100         1050.000000         0.002023882        11.835011579        -0.060012150        -0.058681879         0.000271826
      2110         1055.000000         0.002028061        11.859448369        -0.059997505        -0.058681878         0.000265936
      2120         1060.000000         0.002031987        11.882407478        -0.059983131        -0.058681878         0.000271016
      2130         1065.000000         0.002016077        11.789371785        -0.059969105        -0.058681878         0.000275876
      2140         1070.000000         0.001997968        11.683473570        -0.059955570        -0.058681878         0.000271047
      2150         1075.000000         0.001991333        11.644673457        -0.059942712        -0.058681876         0.000259737
      2160         1080.000000         0.001982499        11.593015314        -0.059930624        -0.058681875         0.000262247
      2170         1085.000000         0.001976517        11.558034543        -0.059919341        -0.058681875         0.000258116
      2180         1090.000000         0.001964922        11.490233171        -0.059908963        -0.058681875         0.000260356
      2190         1095.000000         0.001937418        11.329400755        -0.059899648        -0.058681876         0.000285367
      2200         1100.000000         0.001934645        11.313184475        -0.059891415        -0.058681876         0.000307756
      2210         1105.000000         0.001927267        11.270036232        -0.059884286        -0.058681876         0.000281206
      2220         1110.000000         0.001920590        11.230994412        -0.059878312        -0.058681876         0.000272126
      2230         1115.000000         0.001919324        11.223590620        -0.059873475        -0.058681876         0.000273297
      2240         1120.000000         0.001929634        11.283877624        -0.059869795        -0.058681876         0.000266157
      2250         1125.000000         0.001928615        11.277923549        -0.059867209        -0.058681876         0.000262987
      2260         1130.000000         0.001895967        11.087003054        -0.059865715        -0.058681876         0.000265987
      2270         1135.000000         0.001884571        11.020363626        -0.059865355        -0.058681876         0.000262707