 DBCSR| CPU Multiplication driver                                           XSMM
 DBCSR| Multrec recursion limit                                              512
 DBCSR| Multiplication stack size                                           1000
 DBCSR| Maximum elements for images                                    UNLIMITED
 DBCSR| Multiplicative factor virtual images                                   1
 DBCSR| Use multiplication densification                                       T
 DBCSR| Multiplication size stacks                                             3
 DBCSR| Use memory pool for CPU allocation                                     F
 DBCSR| Number of 3D layers                                               SINGLE
 DBCSR| Use MPI memory allocation                                              F
 DBCSR| Use RMA algorithm                                                      F
 DBCSR| Use Communication thread                                               T
 DBCSR| Communication thread load                                             87
 DBCSR| MPI: My node id                                                        0
 DBCSR| MPI: Number of nodes                                                 256
 DBCSR| OMP: Current number of threads                                         1
 DBCSR| OMP: Max number of threads                                             1
 DBCSR| Split modifier for TAS multiplication algorithm                  1.0E+00


  **** **** ******  **  PROGRAM STARTED AT               2023-04-19 14:25:40.630
 ***** ** ***  *** **   PROGRAM STARTED ON                             nid001189
 **    ****   ******    PROGRAM STARTED BY                              dpassero
 ***** **    ** ** **   PROGRAM PROCESS ID                                144145
  **** **  *******  **  PROGRAM STARTED IN /scratch/e1000/dpassero/MMM_2023/jbac
                                           hmann/methane/full

 CP2K| version string:                 CP2K version 2022.1 (Development Version)
 CP2K| source code revision number:                                  git:4ddb46c
 CP2K| cp2kflags: omp libint fftw3 libxc elpa parallel mpi3 scalapack xsmm max_c
 CP2K|            ontr=4 plumed2 spglib
 CP2K| is freely available from                            https://www.cp2k.org/
 CP2K| Program compiled at                      Wed 14 Sep 2022 12:18:41 PM CEST
 CP2K| Program compiled on                                             nid001080
 CP2K| Program compiled for                                 Eiger-gfortran_May22
 CP2K| Data directory path         /users/mmi/DEV/CP2K/trunk_new/eiger/cp2k/data
 CP2K| Input file name        /scratch/e1000/dpassero/MMM_2023/jbachmann/methane

 GLOBAL| Force Environment number                                              1
 GLOBAL| Basis set file name                                        BASIS_MOLOPT
 GLOBAL| Potential file name                                           POTENTIAL
 GLOBAL| MM Potential file name                                     MM_POTENTIAL
 GLOBAL| Coordinate file name                                  methane_on_pt.xyz
 GLOBAL| Method name                                                        CP2K
 GLOBAL| Project name                                              methane_on_pt
 GLOBAL| Run type                                                        GEO_OPT
 GLOBAL| FFT library                                                       FFTW3
 GLOBAL| Diagonalization library                                            ELPA
 GLOBAL| DGEMM library                                                      BLAS
 GLOBAL| Minimum number of eigenvectors for ELPA usage                        16
 GLOBAL| Orthonormality check for eigenvectors                          DISABLED
 GLOBAL| Matrix multiplication library                                 ScaLAPACK
 GLOBAL| All-to-all communication in single precision                          F
 GLOBAL| FFTs using library dependent lengths                                  T
 GLOBAL| Grid backend                                                       AUTO
 GLOBAL| Global print level                                                  LOW
 GLOBAL| MPI I/O enabled                                                       T
 GLOBAL| Total number of message passing processes                           256
 GLOBAL| Number of threads for this process                                    1
 GLOBAL| This output is from process                                           0
 GLOBAL| Stack size for threads created by OpenMP (OMP_STACKSIZE)           100M
 GLOBAL| CPU model name                          AMD EPYC 7742 64-Core Processor
 GLOBAL| CPUID                                                              1002

 MEMORY| system memory details [Kb]
 MEMORY|                        rank 0           min           max       average
 MEMORY| MemTotal            263506204     263506204     263506204     263506204
 MEMORY| MemFree             233122420     232024336     233122420     232573378
 MEMORY| Buffers                194600        194600        303848        249224
 MEMORY| Cached                3253064       3253064       3354176       3303620
 MEMORY| Slab                  7580380       7580380       8316716       7948548
 MEMORY| SReclaimable           392368        392368        825532        608950
 MEMORY| MemLikelyFree       236962452     236507892     236962452     236735172


 GENERATE|  Preliminary Number of Bonds generated:                             0
 GENERATE|  Achieved consistency in connectivity generation.

 *******************************************************************************
 *******************************************************************************
 **                                                                           **
 **     #####                         ##              ##                      **
 **    ##   ##            ##          ##              ##                      **
 **   ##     ##                       ##            ######                    **
 **   ##     ##  ##   ##  ##   #####  ##  ##   ####   ##    #####    #####    **
 **   ##     ##  ##   ##  ##  ##      ## ##   ##      ##   ##   ##  ##   ##   **
 **   ##  ## ##  ##   ##  ##  ##      ####     ###    ##   ######   ######    **
 **    ##  ###   ##   ##  ##  ##      ## ##      ##   ##   ##       ##        **
 **     #######   #####   ##   #####  ##  ##  ####    ##    #####   ##        **
 **           ##                                                    ##        **
 **                                                                           **
 **                                                ... make the atoms dance   **
 **                                                                           **
 **            Copyright (C) by CP2K developers group (2000-2022)             **
 **                      J. Chem. Phys. 152, 194103 (2020)                    **
 **                                                                           **
 *******************************************************************************


 TOTAL NUMBERS AND MAXIMUM NUMBERS

  Total number of            - Atomic kinds:                                   3
                             - Atoms:                                        185
                             - Shell sets:                                   185
                             - Shells:                                      1457
                             - Primitive Cartesian functions:               1115
                             - Cartesian basis functions:                   5614
                             - Spherical basis functions:                   4713

  Maximum angular momentum of- Orbital basis functions:                        3
                             - Local part of the GTH pseudopotential:          2
                             - Non-local part of the GTH pseudopotential:      5


 SCF PARAMETERS         Density guess:                                   RESTART
                        --------------------------------------------------------
                        max_scf:                                              30
                        max_scf_history:                                       0
                        max_diis:                                              4
                        --------------------------------------------------------
                        eps_scf:                                        1.00E-06
                        eps_scf_history:                                0.00E+00
                        eps_diis:                                       1.00E-01
                        eps_eigval:                                     1.00E-05
                        --------------------------------------------------------
                        level_shift [a.u.]:                             0.000000
                        --------------------------------------------------------
                        Outer loop SCF in use 
                        No variables optimised in outer loop
                        eps_scf                                         1.00E-06
                        max_scf                                               20
                        No outer loop optimization
                        step_size                                       5.00E-01

 BFGS| Use rational function optimization for step estimation:                NO
 BFGS| Use model Hessian for initial guess:                                  YES
 BFGS| Restart Hessian:                                                       NO
 BFGS| Trust radius:                                                       0.100

 *******************************************************************************
 ***                     STARTING GEOMETRY OPTIMIZATION                      ***
 ***                                   BFGS                                  ***
 *******************************************************************************

 Number of electrons:                                                       3248
 Number of occupied orbitals:                                               1624
 Number of molecular orbitals:                                              1624

 Number of orbital functions:                                               4713
 Number of independent orbital functions:                                   4713

 Extrapolation method: initial_guess

 *** WARNING in qs_initial_guess.F:310 :: User requested to restart the    ***
 *** wavefunction from the file named: methane_on_pt-RESTART.wfn. This     ***
 *** file does not exist. Please check the existence of the file or change ***
 *** properly the value of the keyword WFN_RESTART_FILE_NAME. Calculation  ***
 *** continues using ATOMIC GUESS.                                         ***



 SCF WAVEFUNCTION OPTIMIZATION

  ----------------------------------- OT ---------------------------------------
  Minimizer      : DIIS                : direct inversion
                                         in the iterative subspace
                                         using   7 DIIS vectors
                                         safer DIIS on
  Preconditioner : FULL_KINETIC        : inversion of T + eS
  Precond_solver : DEFAULT
  stepsize       :    0.15000000                  energy_gap     :    0.20000000
  eps_taylor     :   0.10000E-15                  max_taylor     :             4
  ----------------------------------- OT ---------------------------------------

  Step     Update method      Time    Convergence         Total energy    Change
  ------------------------------------------------------------------------------
     1 OT DIIS     0.15E+00    1.9     0.01459283    -21481.7767348978 -2.15E+04
     2 OT DIIS     0.15E+00    2.0     0.00885483    -21617.6994159420 -1.36E+02
     3 OT DIIS     0.15E+00    1.9     0.00599936    -21656.9915110837 -3.93E+01
     4 OT DIIS     0.15E+00    1.9     0.00502676    -21677.7157424941 -2.07E+01
     5 OT DIIS     0.15E+00    1.9     0.00320169    -21688.5311491250 -1.08E+01
     6 OT DIIS     0.15E+00    1.9     0.00185376    -21694.5109375721 -5.98E+00
     7 OT DIIS     0.15E+00    1.9     0.00126321    -21697.8987951680 -3.39E+00
     8 OT DIIS     0.15E+00    1.9     0.00099700    -21700.0591772908 -2.16E+00
     9 OT DIIS     0.15E+00    1.9     0.00088851    -21701.5501852968 -1.49E+00
    10 OT DIIS     0.15E+00    1.9     0.00079727    -21703.1480095517 -1.60E+00
    11 OT DIIS     0.15E+00    1.9     0.00070391    -21705.1627197044 -2.01E+00
    12 OT DIIS     0.15E+00    1.9     0.00061606    -21707.0579612510 -1.90E+00
    13 OT DIIS     0.15E+00    2.0     0.00054879    -21708.3965094931 -1.34E+00
    14 OT DIIS     0.15E+00    1.9     0.00050786    -21709.2714750536 -8.75E-01
    15 OT DIIS     0.15E+00    1.9     0.00046925    -21710.1297839379 -8.58E-01
    16 OT DIIS     0.15E+00    1.9     0.00042989    -21711.0041411057 -8.74E-01
    17 OT DIIS     0.15E+00    1.9     0.00039111    -21711.8679965577 -8.64E-01
    18 OT DIIS     0.15E+00    1.9     0.00035697    -21712.5043531887 -6.36E-01
    19 OT DIIS     0.15E+00    1.9     0.00033307    -21712.9959062746 -4.92E-01
    20 OT DIIS     0.15E+00    1.9     0.00031473    -21713.3484647466 -3.53E-01
    21 OT DIIS     0.15E+00    1.9     0.00029843    -21713.6871912565 -3.39E-01
    22 OT DIIS     0.15E+00    1.9     0.00028291    -21714.0141673141 -3.27E-01
    23 OT DIIS     0.15E+00    1.9     0.00026605    -21714.3894136216 -3.75E-01
    24 OT DIIS     0.15E+00    1.9     0.00025157    -21714.6752087174 -2.86E-01
    25 OT DIIS     0.15E+00    1.9     0.00023759    -21714.9339654345 -2.59E-01
    26 OT DIIS     0.15E+00    1.9     0.00022712    -21715.1372436701 -2.03E-01
    27 OT DIIS     0.15E+00    1.9     0.00021603    -21715.3519397350 -2.15E-01
    28 OT DIIS     0.15E+00    1.9     0.00020686    -21715.5331101956 -1.81E-01
    29 OT DIIS     0.15E+00    1.9     0.00019767    -21715.7071310855 -1.74E-01
    30 OT DIIS     0.15E+00    1.9     0.00018854    -21715.8562489062 -1.49E-01

  Leaving inner SCF loop after reaching    30 steps.


  Electronic density on regular grids:      -3247.9999999980        0.0000000020
  Core density on regular grids:             3247.9999999999       -0.0000000001
  Total charge density on r-space grids:        0.0000000019
  Total charge density g-space grids:           0.0000000019

  Overlap energy of the core charge distribution:               0.00000128249918
  Self energy of the core charge distribution:             -32922.51341626739304
  Core Hamiltonian energy:                                   7369.83995107114970
  Hartree energy:                                            6035.07220459393830
  Exchange-correlation energy:                              -2214.27946682117545
  Dispersion energy:                                           16.02447723478469

  Total energy:                                            -21715.85624890620238

  outer SCF iter =    1 RMS gradient =   0.19E-03 energy =     -21715.8562489062

  ----------------------------------- OT ---------------------------------------
  Minimizer      : DIIS                : direct inversion
                                         in the iterative subspace
                                         using   7 DIIS vectors
                                         safer DIIS on
  Preconditioner : FULL_KINETIC        : inversion of T + eS
  Precond_solver : DEFAULT
  stepsize       :    0.15000000                  energy_gap     :    0.20000000
  eps_taylor     :   0.10000E-15                  max_taylor     :             4
  ----------------------------------- OT ---------------------------------------

  Step     Update method      Time    Convergence         Total energy    Change
  ------------------------------------------------------------------------------
     1 OT DIIS     0.15E+00    4.0     0.00021718    -21715.9881262031 -1.32E-01
     2 OT DIIS     0.15E+00    1.7     0.00020617    -21716.0384373727 -5.03E-02
     3 OT DIIS     0.15E+00    1.7     0.00020290    -21716.0728250574 -3.44E-02
     4 OT DIIS     0.15E+00    1.7     0.00018775    -21716.1577642969 -8.49E-02
     5 OT DIIS     0.15E+00    1.8     0.00017848    -21716.2386777933 -8.09E-02
     6 OT DIIS     0.15E+00    1.8     0.00017166    -21716.3276737780 -8.90E-02
     7 OT DIIS     0.15E+00    1.9     0.00016344    -21716.4669196718 -1.39E-01
     8 OT DIIS     0.15E+00    1.9     0.00015256    -21716.6618569785 -1.95E-01
     9 OT DIIS     0.15E+00    1.9     0.00014268    -21716.8267105075 -1.65E-01
    10 OT DIIS     0.15E+00    1.9     0.00013514    -21716.9686344663 -1.42E-01
    11 OT DIIS     0.15E+00    1.9     0.00012749    -21717.1050414440 -1.36E-01
    12 OT DIIS     0.15E+00    1.9     0.00011949    -21717.2187098680 -1.14E-01
    13 OT DIIS     0.15E+00    1.9     0.00011261    -21717.3000330752 -8.13E-02
    14 OT DIIS     0.15E+00    1.9     0.00010807    -21717.3645552281 -6.45E-02
    15 OT DIIS     0.15E+00    1.9     0.00010371    -21717.4208113866 -5.63E-02
    16 OT DIIS     0.15E+00    1.9     0.00009977    -21717.4663428598 -4.55E-02
    17 OT DIIS     0.15E+00    1.9     0.00009701    -21717.5024237444 -3.61E-02
    18 OT DIIS     0.15E+00    1.9     0.00009506    -21717.5389882065 -3.66E-02
    19 OT DIIS     0.15E+00    1.9     0.00009313    -21717.5734432476 -3.45E-02
    20 OT DIIS     0.15E+00    1.9     0.00009080    -21717.6031119844 -2.97E-02
    21 OT DIIS     0.15E+00    1.9     0.00008916    -21717.6262914132 -2.32E-02
    22 OT DIIS     0.15E+00    1.9     0.00008791    -21717.6515577048 -2.53E-02
    23 OT DIIS     0.15E+00    1.9     0.00008650    -21717.6811518819 -2.96E-02
    24 OT DIIS     0.15E+00    1.9     0.00008500    -21717.7084982930 -2.73E-02
    25 OT DIIS     0.15E+00    1.9     0.00008378    -21717.7315903823 -2.31E-02
    26 OT DIIS     0.15E+00    1.9     0.00008277    -21717.7556031152 -2.40E-02
    27 OT DIIS     0.15E+00    1.9     0.00008164    -21717.7813470051 -2.57E-02
    28 OT DIIS     0.15E+00    1.9     0.00008037    -21717.8082626581 -2.69E-02
    29 OT DIIS     0.15E+00    1.9     0.00007915    -21717.8345488537 -2.63E-02
    30 OT DIIS     0.15E+00    1.9     0.00007774    -21717.8626967208 -2.81E-02

  Leaving inner SCF loop after reaching    30 steps.


  Electronic density on regular grids:      -3247.9999999980        0.0000000020
  Core density on regular grids:             3247.9999999999       -0.0000000001
  Total charge density on r-space grids:        0.0000000019
  Total charge density g-space grids:           0.0000000019

  Overlap energy of the core charge distribution:               0.00000128249918
  Self energy of the core charge distribution:             -32922.51341626739304
  Core Hamiltonian energy:                                   7365.49297174291314
  Hartree energy:                                            6037.03779852859407
  Exchange-correlation energy:                              -2213.89814986038937
  Dispersion energy:                                           16.01809785297264

  Total energy:                                            -21717.86269672080743

  outer SCF iter =    2 RMS gradient =   0.78E-04 energy =     -21717.8626967208

  ----------------------------------- OT ---------------------------------------
  Minimizer      : DIIS                : direct inversion
                                         in the iterative subspace
                                         using   7 DIIS vectors
                                         safer DIIS on
  Preconditioner : FULL_KINETIC        : inversion of T + eS
  Precond_solver : DEFAULT
  stepsize       :    0.15000000                  energy_gap     :    0.20000000
  eps_taylor     :   0.10000E-15                  max_taylor     :             4
  ----------------------------------- OT ---------------------------------------

  Step     Update method      Time    Convergence         Total energy    Change
  ------------------------------------------------------------------------------
     1 OT DIIS     0.15E+00    4.0     0.00007721    -21717.8904920653 -2.78E-02
     2 OT DIIS     0.15E+00    1.7     0.00007663    -21717.8971504835 -6.66E-03
     3 OT DIIS     0.15E+00    1.7     0.00007521    -21717.9009290451 -3.78E-03
     4 OT DIIS     0.15E+00    1.7     0.00007308    -21717.9250296820 -2.41E-02
     5 OT DIIS     0.15E+00    1.7     0.00007134    -21717.9380118552 -1.30E-02
     6 OT DIIS     0.15E+00    1.7     0.00007115    -21717.9544469575 -1.64E-02
     7 OT DIIS     0.15E+00    1.8     0.00006789    -21718.0088535454 -5.44E-02
     8 OT DIIS     0.15E+00    1.9     0.00006509    -21718.0668342775 -5.80E-02
     9 OT DIIS     0.15E+00    1.9     0.00006246    -21718.1182139604 -5.14E-02
    10 OT DIIS     0.15E+00    1.9     0.00005997    -21718.1830272711 -6.48E-02
    11 OT DIIS     0.15E+00    1.9     0.00005591    -21718.2563556984 -7.33E-02
    12 OT DIIS     0.15E+00    1.9     0.00005179    -21718.2974738708 -4.11E-02
    13 OT DIIS     0.15E+00    1.9     0.00004998    -21718.3222908040 -2.48E-02
    14 OT DIIS     0.15E+00    1.9     0.00004867    -21718.3426270256 -2.03E-02
    15 OT DIIS     0.15E+00    1.9     0.00004632    -21718.3624197688 -1.98E-02
    16 OT DIIS     0.15E+00    1.9     0.00004452    -21718.3765204950 -1.41E-02
    17 OT DIIS     0.15E+00    1.9     0.00004352    -21718.3892744684 -1.28E-02
    18 OT DIIS     0.15E+00    1.9     0.00004296    -21718.3995007200 -1.02E-02
    19 OT DIIS     0.15E+00    1.9     0.00004147    -21718.4124874518 -1.30E-02
    20 OT DIIS     0.15E+00    1.9     0.00004048    -21718.4199053933 -7.42E-03
    21 OT DIIS     0.15E+00    1.9     0.00004002    -21718.4252570880 -5.35E-03
    22 OT DIIS     0.15E+00    1.9     0.00003959    -21718.4325091935 -7.25E-03
    23 OT DIIS     0.15E+00    1.9     0.00003898    -21718.4417690044 -9.26E-03
    24 OT DIIS     0.15E+00    1.9     0.00003824    -21718.4492149485 -7.45E-03
    25 OT DIIS     0.15E+00    1.9     0.00003788    -21718.4552228308 -6.01E-03
    26 OT DIIS     0.15E+00    1.9     0.00003757    -21718.4617090770 -6.49E-03
    27 OT DIIS     0.15E+00    1.9     0.00003692    -21718.4712057285 -9.50E-03
    28 OT DIIS     0.15E+00    1.9     0.00003637    -21718.4788705726 -7.66E-03
    29 OT DIIS     0.15E+00    1.9     0.00003610    -21718.4841898077 -5.32E-03
    30 OT DIIS     0.15E+00    1.9     0.00003572    -21718.4902054278 -6.02E-03

  Leaving inner SCF loop after reaching    30 steps.


  Electronic density on regular grids:      -3247.9999999980        0.0000000020
  Core density on regular grids:             3247.9999999999       -0.0000000001
  Total charge density on r-space grids:        0.0000000019
  Total charge density g-space grids:           0.0000000019

  Overlap energy of the core charge distribution:               0.00000128249918
  Self energy of the core charge distribution:             -32922.51341626739304
  Core Hamiltonian energy:                                   7363.80662426095114
  Hartree energy:                                            6037.91991264115131
  Exchange-correlation energy:                              -2213.71689795780185
  Dispersion energy:                                           16.01357061284666

  Total energy:                                            -21718.49020542775179

  outer SCF iter =    3 RMS gradient =   0.36E-04 energy =     -21718.4902054278

  ----------------------------------- OT ---------------------------------------
  Minimizer      : DIIS                : direct inversion
                                         in the iterative subspace
                                         using   7 DIIS vectors
                                         safer DIIS on
  Preconditioner : FULL_KINETIC        : inversion of T + eS
  Precond_solver : DEFAULT
  stepsize       :    0.15000000                  energy_gap     :    0.20000000
  eps_taylor     :   0.10000E-15                  max_taylor     :             4
  ----------------------------------- OT ---------------------------------------

  Step     Update method      Time    Convergence         Total energy    Change
  ------------------------------------------------------------------------------
     1 OT DIIS     0.15E+00    4.0     0.00003564    -21718.4970849251 -6.88E-03
     2 OT DIIS     0.15E+00    1.7     0.00003560    -21718.4985127878 -1.43E-03
     3 OT DIIS     0.15E+00    1.7     0.00003505    -21718.4992376654 -7.25E-04
     4 OT DIIS     0.15E+00    1.7     0.00003468    -21718.5030840429 -3.85E-03
     5 OT DIIS     0.15E+00    1.7     0.00003399    -21718.5070041808 -3.92E-03
     6 OT DIIS     0.15E+00    1.7     0.00003389    -21718.5103074062 -3.30E-03
     7 OT DIIS     0.15E+00    1.7     0.00003308    -21718.5232896889 -1.30E-02
     8 OT DIIS     0.15E+00    1.7     0.00003230    -21718.5371605789 -1.39E-02
     9 OT DIIS     0.15E+00    1.8     0.00003161    -21718.5502761147 -1.31E-02
    10 OT DIIS     0.15E+00    1.9     0.00003120    -21718.5679854282 -1.77E-02
    11 OT DIIS     0.15E+00    1.9     0.00002955    -21718.5988063689 -3.08E-02
    12 OT DIIS     0.15E+00    1.9     0.00002728    -21718.6219298751 -2.31E-02
    13 OT DIIS     0.15E+00    1.9     0.00002606    -21718.6335233471 -1.16E-02
    14 OT DIIS     0.15E+00    1.9     0.00002479    -21718.6498639655 -1.63E-02
    15 OT DIIS     0.15E+00    1.9     0.00002313    -21718.6636748784 -1.38E-02
    16 OT DIIS     0.15E+00    1.9     0.00002191    -21718.6736728319 -1.00E-02
    17 OT DIIS     0.15E+00    1.9     0.00002115    -21718.6792677591 -5.59E-03
    18 OT DIIS     0.15E+00    1.9     0.00002052    -21718.6830786716 -3.81E-03
    19 OT DIIS     0.15E+00    1.9     0.00001996    -21718.6849449493 -1.87E-03
    20 OT DIIS     0.15E+00    1.9     0.00001959    -21718.6870841524 -2.14E-03
    21 OT DIIS     0.15E+00    1.9     0.00001940    -21718.6881631716 -1.08E-03
    22 OT DIIS     0.15E+00    1.9     0.00001908    -21718.6905342242 -2.37E-03
    23 OT DIIS     0.15E+00    1.9     0.00001891    -21718.6918087677 -1.27E-03
    24 OT DIIS     0.15E+00    1.9     0.00001852    -21718.6938313442 -2.02E-03
    25 OT DIIS     0.15E+00    1.9     0.00001838    -21718.6951426010 -1.31E-03
    26 OT DIIS     0.15E+00    1.9     0.00001829    -21718.6966219348 -1.48E-03
    27 OT DIIS     0.15E+00    1.9     0.00001810    -21718.6987163988 -2.09E-03
    28 OT DIIS     0.15E+00    1.9     0.00001779    -21718.7015304269 -2.81E-03
    29 OT DIIS     0.15E+00    1.9     0.00001759    -21718.7034737482 -1.94E-03
    30 OT DIIS     0.15E+00    1.9     0.00001747    -21718.7053968710 -1.92E-03

  Leaving inner SCF loop after reaching    30 steps.


  Electronic density on regular grids:      -3247.9999999980        0.0000000020
  Core density on regular grids:             3247.9999999999       -0.0000000001
  Total charge density on r-space grids:        0.0000000019
  Total charge density g-space grids:           0.0000000019

  Overlap energy of the core charge distribution:               0.00000128249918
  Self energy of the core charge distribution:             -32922.51341626739304
  Core Hamiltonian energy:                                   7363.35862902098052
  Hartree energy:                                            6038.12665194122201
  Exchange-correlation energy:                              -2213.69014410742420
  Dispersion energy:                                           16.01288125908820

  Total energy:                                            -21718.70539687102792

  outer SCF iter =    4 RMS gradient =   0.17E-04 energy =     -21718.7053968710

  ----------------------------------- OT ---------------------------------------
  Minimizer      : DIIS                : direct inversion
                                         in the iterative subspace
                                         using   7 DIIS vectors
                                         safer DIIS on
  Preconditioner : FULL_KINETIC        : inversion of T + eS
  Precond_solver : DEFAULT
  stepsize       :    0.15000000                  energy_gap     :    0.20000000
  eps_taylor     :   0.10000E-15                  max_taylor     :             4
  ----------------------------------- OT ---------------------------------------

  Step     Update method      Time    Convergence         Total energy    Change
  ------------------------------------------------------------------------------
     1 OT DIIS     0.15E+00    4.0     0.00001755    -21718.7072237010 -1.83E-03
     2 OT DIIS     0.15E+00    1.7     0.00001774    -21718.7075685923 -3.45E-04
     3 OT DIIS     0.15E+00    1.7     0.00001728    -21718.7077105088 -1.42E-04
     4 OT DIIS     0.15E+00    1.7     0.00001719    -21718.7087146689 -1.00E-03
     5 OT DIIS     0.15E+00    1.7     0.00001694    -21718.7097322397 -1.02E-03
     6 OT DIIS     0.15E+00    1.7     0.00001688    -21718.7103863778 -6.54E-04
     7 OT DIIS     0.15E+00    1.7     0.00001656    -21718.7143380799 -3.95E-03
     8 OT DIIS     0.15E+00    1.7     0.00001636    -21718.7173785837 -3.04E-03
     9 OT DIIS     0.15E+00    1.7     0.00001616    -21718.7203024220 -2.92E-03
    10 OT DIIS     0.15E+00    1.7     0.00001611    -21718.7243662988 -4.06E-03
    11 OT DIIS     0.15E+00    1.9     0.00001541    -21718.7335751447 -9.21E-03
    12 OT DIIS     0.15E+00    1.9     0.00001473    -21718.7410043811 -7.43E-03
    13 OT DIIS     0.15E+00    1.9     0.00001420    -21718.7455783520 -4.57E-03
    14 OT DIIS     0.15E+00    1.9     0.00001367    -21718.7533359693 -7.76E-03
    15 OT DIIS     0.15E+00    1.9     0.00001262    -21718.7614583934 -8.12E-03
    16 OT DIIS     0.15E+00    2.0     0.00001180    -21718.7671765558 -5.72E-03
    17 OT DIIS     0.15E+00    1.9     0.00001140    -21718.7697421208 -2.57E-03
    18 OT DIIS     0.15E+00    1.9     0.00001113    -21718.7716216891 -1.88E-03
    19 OT DIIS     0.15E+00    1.9     0.00001079    -21718.7725215123 -9.00E-04
    20 OT DIIS     0.15E+00    1.9     0.00001062    -21718.7736831938 -1.16E-03
    21 OT DIIS     0.15E+00    1.9     0.00001043    -21718.7744091671 -7.26E-04
    22 OT DIIS     0.15E+00    1.9     0.00001019    -21718.7758914177 -1.48E-03
    23 OT DIIS     0.15E+00    2.0     0.00000999    -21718.7769947992 -1.10E-03
    24 OT DIIS     0.15E+00    1.9     0.00000976    -21718.7781445591 -1.15E-03
    25 OT DIIS     0.15E+00    1.9     0.00000960    -21718.7791769914 -1.03E-03
    26 OT DIIS     0.15E+00    1.9     0.00000952    -21718.7799781725 -8.01E-04
    27 OT DIIS     0.15E+00    1.9     0.00000937    -21718.7813350859 -1.36E-03
    28 OT DIIS     0.15E+00    1.9     0.00000925    -21718.7820684455 -7.33E-04
    29 OT DIIS     0.15E+00    1.9     0.00000909    -21718.7829547250 -8.86E-04
    30 OT DIIS     0.15E+00    1.9     0.00000903    -21718.7834599630 -5.05E-04

  Leaving inner SCF loop after reaching    30 steps.


  Electronic density on regular grids:      -3247.9999999980        0.0000000020
  Core density on regular grids:             3247.9999999999       -0.0000000001
  Total charge density on r-space grids:        0.0000000019
  Total charge density g-space grids:           0.0000000019

  Overlap energy of the core charge distribution:               0.00000128249918
  Self energy of the core charge distribution:             -32922.51341626739304
  Core Hamiltonian energy:                                   7363.13316855258017
  Hartree energy:                                            6038.24771590103683
  Exchange-correlation energy:                              -2213.66305714583996
  Dispersion energy:                                           16.01212771411515

  Total energy:                                            -21718.78345996300413

  outer SCF iter =    5 RMS gradient =   0.90E-05 energy =     -21718.7834599630

  ----------------------------------- OT ---------------------------------------
  Minimizer      : DIIS                : direct inversion
                                         in the iterative subspace
                                         using   7 DIIS vectors
                                         safer DIIS on
  Preconditioner : FULL_KINETIC        : inversion of T + eS
  Precond_solver : DEFAULT
  stepsize       :    0.15000000                  energy_gap     :    0.20000000
  eps_taylor     :   0.10000E-15                  max_taylor     :             4
  ----------------------------------- OT ---------------------------------------

  Step     Update method      Time    Convergence         Total energy    Change
  ------------------------------------------------------------------------------
     1 OT DIIS     0.15E+00    3.9     0.00000905    -21718.7840416940 -5.82E-04
     2 OT DIIS     0.15E+00    1.7     0.00000915    -21718.7841334705 -9.18E-05
     3 OT DIIS     0.15E+00    1.7     0.00000892    -21718.7841707707 -3.73E-05
     4 OT DIIS     0.15E+00    1.7     0.00000889    -21718.7844220992 -2.51E-04
     5 OT DIIS     0.15E+00    1.7     0.00000877    -21718.7847406654 -3.19E-04
     6 OT DIIS     0.15E+00    1.7     0.00000874    -21718.7848960498 -1.55E-04
     7 OT DIIS     0.15E+00    1.7     0.00000863    -21718.7858544412 -9.58E-04
     8 OT DIIS     0.15E+00    1.7     0.00000857    -21718.7864474684 -5.93E-04
     9 OT DIIS     0.15E+00    1.7     0.00000851    -21718.7870396871 -5.92E-04
    10 OT DIIS     0.15E+00    1.7     0.00000851    -21718.7878938661 -8.54E-04
    11 OT DIIS     0.15E+00    1.7     0.00000827    -21718.7901893547 -2.30E-03
    12 OT DIIS     0.15E+00    1.7     0.00000811    -21718.7918802176 -1.69E-03
    13 OT DIIS     0.15E+00    1.8     0.00000794    -21718.7934660264 -1.59E-03
    14 OT DIIS     0.15E+00    2.0     0.00000782    -21718.7951937903 -1.73E-03
    15 OT DIIS     0.15E+00    1.9     0.00000753    -21718.7979478077 -2.75E-03
    16 OT DIIS     0.15E+00    1.9     0.00000728    -21718.7997603454 -1.81E-03
    17 OT DIIS     0.15E+00    1.9     0.00000715    -21718.8007946100 -1.03E-03
    18 OT DIIS     0.15E+00    1.9     0.00000705    -21718.8016249990 -8.30E-04
    19 OT DIIS     0.15E+00    1.9     0.00000694    -21718.8023813383 -7.56E-04
    20 OT DIIS     0.15E+00    1.9     0.00000684    -21718.8028711932 -4.90E-04
    21 OT DIIS     0.15E+00    1.9     0.00000682    -21718.8032283817 -3.57E-04
    22 OT DIIS     0.15E+00    1.9     0.00000676    -21718.8034554462 -2.27E-04
    23 OT DIIS     0.15E+00    1.9     0.00000665    -21718.8039128303 -4.57E-04
    24 OT DIIS     0.15E+00    1.9     0.00000659    -21718.8042551755 -3.42E-04
    25 OT DIIS     0.15E+00    1.9     0.00000656    -21718.8044884659 -2.33E-04
    26 OT DIIS     0.15E+00    2.0     0.00000651    -21718.8046827051 -1.94E-04
    27 OT DIIS     0.15E+00    1.9     0.00000646    -21718.8049643646 -2.82E-04
    28 OT DIIS     0.15E+00    1.9     0.00000642    -21718.8052996925 -3.35E-04
    29 OT DIIS     0.15E+00    1.9     0.00000640    -21718.8054635051 -1.64E-04
    30 OT DIIS     0.15E+00    1.9     0.00000637    -21718.8056060093 -1.43E-04

  Leaving inner SCF loop after reaching    30 steps.


  Electronic density on regular grids:      -3247.9999999980        0.0000000020
  Core density on regular grids:             3247.9999999999       -0.0000000001
  Total charge density on r-space grids:        0.0000000019
  Total charge density g-space grids:           0.0000000019

  Overlap energy of the core charge distribution:               0.00000128249918
  Self energy of the core charge distribution:             -32922.51341626739304
  Core Hamiltonian energy:                                   7363.07456093158089
  Hartree energy:                                            6038.27864474124272
  Exchange-correlation energy:                              -2213.65739755619416
  Dispersion energy:                                           16.01200085899723

  Total energy:                                            -21718.80560600926765

  outer SCF iter =    6 RMS gradient =   0.64E-05 energy =     -21718.8056060093

  ----------------------------------- OT ---------------------------------------
  Minimizer      : DIIS                : direct inversion
                                         in the iterative subspace
                                         using   7 DIIS vectors
                                         safer DIIS on
  Preconditioner : FULL_KINETIC        : inversion of T + eS
  Precond_solver : DEFAULT
  stepsize       :    0.15000000                  energy_gap     :    0.20000000
  eps_taylor     :   0.10000E-15                  max_taylor     :             4
  ----------------------------------- OT ---------------------------------------

  Step     Update method      Time    Convergence         Total energy    Change
  ------------------------------------------------------------------------------
     1 OT DIIS     0.15E+00    3.9     0.00000634    -21718.8058289564 -2.23E-04
     2 OT DIIS     0.15E+00    1.7     0.00000637    -21718.8058746691 -4.57E-05
     3 OT DIIS     0.15E+00    1.7     0.00000630    -21718.8058941543 -1.95E-05
     4 OT DIIS     0.15E+00    1.7     0.00000629    -21718.8060000525 -1.06E-04
     5 OT DIIS     0.15E+00    1.7     0.00000623    -21718.8062589082 -2.59E-04
     6 OT DIIS     0.15E+00    1.7     0.00000621    -21718.8063483553 -8.94E-05
     7 OT DIIS     0.15E+00    1.7     0.00000617    -21718.8068478541 -4.99E-04
     8 OT DIIS     0.15E+00    1.7     0.00000612    -21718.8072632493 -4.15E-04
     9 OT DIIS     0.15E+00    1.7     0.00000609    -21718.8076316071 -3.68E-04
    10 OT DIIS     0.15E+00    1.7     0.00000608    -21718.8080179823 -3.86E-04
    11 OT DIIS     0.15E+00    1.7     0.00000597    -21718.8094172218 -1.40E-03
    12 OT DIIS     0.15E+00    1.7     0.00000584    -21718.8108986340 -1.48E-03
    13 OT DIIS     0.15E+00    1.8     0.00000571    -21718.8121217384 -1.22E-03
    14 OT DIIS     0.15E+00    2.0     0.00000563    -21718.8132601712 -1.14E-03
    15 OT DIIS     0.15E+00    1.9     0.00000547    -21718.8147902177 -1.53E-03
    16 OT DIIS     0.15E+00    1.9     0.00000534    -21718.8160057499 -1.22E-03
    17 OT DIIS     0.15E+00    1.9     0.00000529    -21718.8165557011 -5.50E-04
    18 OT DIIS     0.15E+00    1.9     0.00000524    -21718.8169630831 -4.07E-04
    19 OT DIIS     0.15E+00    1.9     0.00000517    -21718.8173339145 -3.71E-04
    20 OT DIIS     0.15E+00    1.9     0.00000510    -21718.8176236776 -2.90E-04
    21 OT DIIS     0.15E+00    1.9     0.00000507    -21718.8178774486 -2.54E-04
    22 OT DIIS     0.15E+00    1.9     0.00000504    -21718.8180825677 -2.05E-04
    23 OT DIIS     0.15E+00    1.9     0.00000498    -21718.8183720370 -2.89E-04
    24 OT DIIS     0.15E+00    1.9     0.00000490    -21718.8186579042 -2.86E-04
    25 OT DIIS     0.15E+00    1.9     0.00000488    -21718.8187837663 -1.26E-04
    26 OT DIIS     0.15E+00    1.9     0.00000487    -21718.8188918935 -1.08E-04
    27 OT DIIS     0.15E+00    1.9     0.00000485    -21718.8190044731 -1.13E-04
    28 OT DIIS     0.15E+00    1.9     0.00000482    -21718.8191783997 -1.74E-04
    29 OT DIIS     0.15E+00    1.9     0.00000480    -21718.8192818822 -1.03E-04
    30 OT DIIS     0.15E+00    1.9     0.00000479    -21718.8193654030 -8.35E-05

  Leaving inner SCF loop after reaching    30 steps.


  Electronic density on regular grids:      -3247.9999999980        0.0000000020
  Core density on regular grids:             3247.9999999999       -0.0000000001
  Total charge density on r-space grids:        0.0000000019
  Total charge density g-space grids:           0.0000000019

  Overlap energy of the core charge distribution:               0.00000128249918
  Self energy of the core charge distribution:             -32922.51341626739304
  Core Hamiltonian energy:                                   7362.99994604217227
  Hartree energy:                                            6038.32684530347615
  Exchange-correlation energy:                              -2213.64442366299591
  Dispersion energy:                                           16.01168189924783

  Total energy:                                            -21718.81936540299648

  outer SCF iter =    7 RMS gradient =   0.48E-05 energy =     -21718.8193654030

  ----------------------------------- OT ---------------------------------------
  Minimizer      : DIIS                : direct inversion
                                         in the iterative subspace
                                         using   7 DIIS vectors
                                         safer DIIS on
  Preconditioner : FULL_KINETIC        : inversion of T + eS
  Precond_solver : DEFAULT
  stepsize       :    0.15000000                  energy_gap     :    0.20000000
  eps_taylor     :   0.10000E-15                  max_taylor     :             4
  ----------------------------------- OT ---------------------------------------

  Step     Update method      Time    Convergence         Total energy    Change
  ------------------------------------------------------------------------------
     1 OT DIIS     0.15E+00    3.9     0.00000479    -21718.8194890873 -1.24E-04
     2 OT DIIS     0.15E+00    1.7     0.00000484    -21718.8195150277 -2.59E-05
     3 OT DIIS     0.15E+00    1.7     0.00000475    -21718.8195244308 -9.40E-06
     4 OT DIIS     0.15E+00    1.7     0.00000475    -21718.8195862268 -6.18E-05
     5 OT DIIS     0.15E+00    1.7     0.00000472    -21718.8197096408 -1.23E-04
     6 OT DIIS     0.15E+00    1.7     0.00000471    -21718.8197724370 -6.28E-05
     7 OT DIIS     0.15E+00    1.7     0.00000469    -21718.8200749413 -3.03E-04
     8 OT DIIS     0.15E+00    1.7     0.00000465    -21718.8203755668 -3.01E-04
     9 OT DIIS     0.15E+00    1.7     0.00000463    -21718.8207064585 -3.31E-04
    10 OT DIIS     0.15E+00    1.7     0.00000462    -21718.8210567660 -3.50E-04
    11 OT DIIS     0.15E+00    1.7     0.00000454    -21718.8220926852 -1.04E-03
    12 OT DIIS     0.15E+00    1.7     0.00000446    -21718.8228999506 -8.07E-04
    13 OT DIIS     0.15E+00    1.7     0.00000442    -21718.8234216456 -5.22E-04
    14 OT DIIS     0.15E+00    1.7     0.00000441    -21718.8238174568 -3.96E-04
    15 OT DIIS     0.15E+00    1.8     0.00000432    -21718.8246232079 -8.06E-04
    16 OT DIIS     0.15E+00    1.8     0.00000425    -21718.8252664315 -6.43E-04
    17 OT DIIS     0.15E+00    1.9     0.00000421    -21718.8257370941 -4.71E-04
    18 OT DIIS     0.15E+00    1.9     0.00000418    -21718.8260313811 -2.94E-04
    19 OT DIIS     0.15E+00    1.9     0.00000412    -21718.8263851942 -3.54E-04
    20 OT DIIS     0.15E+00    1.9     0.00000409    -21718.8265635396 -1.78E-04
    21 OT DIIS     0.15E+00    1.9     0.00000407    -21718.8267166232 -1.53E-04
    22 OT DIIS     0.15E+00    1.9     0.00000406    -21718.8268236942 -1.07E-04
    23 OT DIIS     0.15E+00    1.9     0.00000403    -21718.8269677708 -1.44E-04
    24 OT DIIS     0.15E+00    2.0     0.00000399    -21718.8270646914 -9.69E-05
    25 OT DIIS     0.15E+00    1.9     0.00000398    -21718.8271304841 -6.58E-05
    26 OT DIIS     0.15E+00    2.0     0.00000397    -21718.8271839101 -5.34E-05
    27 OT DIIS     0.15E+00    1.9     0.00000396    -21718.8272594098 -7.55E-05
    28 OT DIIS     0.15E+00    1.9     0.00000394    -21718.8272980751 -3.87E-05
    29 OT DIIS     0.15E+00    1.9     0.00000394    -21718.8273334160 -3.53E-05
    30 OT DIIS     0.15E+00    1.9     0.00000393    -21718.8273721404 -3.87E-05

  Leaving inner SCF loop after reaching    30 steps.


  Electronic density on regular grids:      -3247.9999999980        0.0000000020
  Core density on regular grids:             3247.9999999999       -0.0000000001
  Total charge density on r-space grids:        0.0000000019
  Total charge density g-space grids:           0.0000000019

  Overlap energy of the core charge distribution:               0.00000128249918
  Self energy of the core charge distribution:             -32922.51341626739304
  Core Hamiltonian energy:                                   7362.94928033669385
  Hartree energy:                                            6038.36055973917610
  Exchange-correlation energy:                              -2213.63525879437111
  Dispersion energy:                                           16.01146156298334

  Total energy:                                            -21718.82737214041481

  outer SCF iter =    8 RMS gradient =   0.39E-05 energy =     -21718.8273721404

  ----------------------------------- OT ---------------------------------------
  Minimizer      : DIIS                : direct inversion
                                         in the iterative subspace
                                         using   7 DIIS vectors
                                         safer DIIS on
  Preconditioner : FULL_KINETIC        : inversion of T + eS
  Precond_solver : DEFAULT
  stepsize       :    0.15000000                  energy_gap     :    0.20000000
  eps_taylor     :   0.10000E-15                  max_taylor     :             4
  ----------------------------------- OT ---------------------------------------

  Step     Update method      Time    Convergence         Total energy    Change
  ------------------------------------------------------------------------------
     1 OT DIIS     0.15E+00    3.9     0.00000392    -21718.8274485901 -7.64E-05
     2 OT DIIS     0.15E+00    1.7     0.00000394    -21718.8274661760 -1.76E-05
     3 OT DIIS     0.15E+00    1.7     0.00000391    -21718.8274728573 -6.68E-06
     4 OT DIIS     0.15E+00    1.7     0.00000391    -21718.8275142812 -4.14E-05
     5 OT DIIS     0.15E+00    1.7     0.00000389    -21718.8276135165 -9.92E-05
     6 OT DIIS     0.15E+00    1.7     0.00000389    -21718.8276737165 -6.02E-05
     7 OT DIIS     0.15E+00    1.7     0.00000387    -21718.8279753290 -3.02E-04
     8 OT DIIS     0.15E+00    1.7     0.00000384    -21718.8282842362 -3.09E-04
     9 OT DIIS     0.15E+00    1.7     0.00000382    -21718.8285932870 -3.09E-04
    10 OT DIIS     0.15E+00    1.7     0.00000380    -21718.8289145236 -3.21E-04
    11 OT DIIS     0.15E+00    1.7     0.00000374    -21718.8300413902 -1.13E-03
    12 OT DIIS     0.15E+00    1.7     0.00000363    -21718.8312899451 -1.25E-03
    13 OT DIIS     0.15E+00    1.8     0.00000358    -21718.8317999945 -5.10E-04
    14 OT DIIS     0.15E+00    1.8     0.00000357    -21718.8321620153 -3.62E-04
    15 OT DIIS     0.15E+00    1.9     0.00000350    -21718.8328529381 -6.91E-04
    16 OT DIIS     0.15E+00    1.9     0.00000345    -21718.8332956921 -4.43E-04
    17 OT DIIS     0.15E+00    1.9     0.00000342    -21718.8337320250 -4.36E-04
    18 OT DIIS     0.15E+00    1.9     0.00000338    -21718.8340346709 -3.03E-04
    19 OT DIIS     0.15E+00    1.9     0.00000334    -21718.8343675700 -3.33E-04
    20 OT DIIS     0.15E+00    1.9     0.00000331    -21718.8345331145 -1.66E-04
    21 OT DIIS     0.15E+00    1.9     0.00000329    -21718.8346903156 -1.57E-04
    22 OT DIIS     0.15E+00    1.9     0.00000327    -21718.8347656310 -7.53E-05
    23 OT DIIS     0.15E+00    1.9     0.00000324    -21718.8349046965 -1.39E-04
    24 OT DIIS     0.15E+00    1.9     0.00000322    -21718.8349516454 -4.69E-05
    25 OT DIIS     0.15E+00    1.9     0.00000320    -21718.8350155037 -6.39E-05
    26 OT DIIS     0.15E+00    1.9     0.00000319    -21718.8350468350 -3.13E-05
    27 OT DIIS     0.15E+00    1.9     0.00000317    -21718.8350873255 -4.05E-05
    28 OT DIIS     0.15E+00    1.9     0.00000316    -21718.8350990127 -1.17E-05
    29 OT DIIS     0.15E+00    1.9     0.00000315    -21718.8351232044 -2.42E-05
    30 OT DIIS     0.15E+00    1.9     0.00000315    -21718.8351314851 -8.28E-06

  Leaving inner SCF loop after reaching    30 steps.


  Electronic density on regular grids:      -3247.9999999980        0.0000000020
  Core density on regular grids:             3247.9999999999       -0.0000000001
  Total charge density on r-space grids:        0.0000000019
  Total charge density g-space grids:           0.0000000019

  Overlap energy of the core charge distribution:               0.00000128249918
  Self energy of the core charge distribution:             -32922.51341626739304
  Core Hamiltonian energy:                                   7362.87602922399492
  Hartree energy:                                            6038.41109038591912
  Exchange-correlation energy:                              -2213.61992481281140
  Dispersion energy:                                           16.01108870265874

  Total energy:                                            -21718.83513148513157

  outer SCF iter =    9 RMS gradient =   0.31E-05 energy =     -21718.8351314851

  ----------------------------------- OT ---------------------------------------
  Minimizer      : DIIS                : direct inversion
                                         in the iterative subspace
                                         using   7 DIIS vectors
                                         safer DIIS on
  Preconditioner : FULL_KINETIC        : inversion of T + eS
  Precond_solver : DEFAULT
  stepsize       :    0.15000000                  energy_gap     :    0.20000000
  eps_taylor     :   0.10000E-15                  max_taylor     :             4
  ----------------------------------- OT ---------------------------------------

  Step     Update method      Time    Convergence         Total energy    Change
  ------------------------------------------------------------------------------
     1 OT DIIS     0.15E+00    3.9     0.00000314    -21718.8351730105 -4.15E-05
     2 OT DIIS     0.15E+00    1.7     0.00000315    -21718.8351842782 -1.13E-05
     3 OT DIIS     0.15E+00    1.7     0.00000313    -21718.8351888151 -4.54E-06
     4 OT DIIS     0.15E+00    1.7     0.00000313    -21718.8352107045 -2.19E-05
     5 OT DIIS     0.15E+00    1.7     0.00000312    -21718.8352694688 -5.88E-05
     6 OT DIIS     0.15E+00    1.7     0.00000311    -21718.8352984627 -2.90E-05
     7 OT DIIS     0.15E+00    1.7     0.00000310    -21718.8354328485 -1.34E-04
     8 OT DIIS     0.15E+00    1.7     0.00000308    -21718.8356350087 -2.02E-04
     9 OT DIIS     0.15E+00    1.7     0.00000307    -21718.8357626165 -1.28E-04
    10 OT DIIS     0.15E+00    1.7     0.00000306    -21718.8358729662 -1.10E-04
    11 OT DIIS     0.15E+00    1.7     0.00000304    -21718.8362142475 -3.41E-04
    12 OT DIIS     0.15E+00    1.7     0.00000301    -21718.8365469740 -3.33E-04
    13 OT DIIS     0.15E+00    1.7     0.00000300    -21718.8367526142 -2.06E-04
    14 OT DIIS     0.15E+00    1.7     0.00000299    -21718.8368871088 -1.34E-04
    15 OT DIIS     0.15E+00    1.7     0.00000296    -21718.8371336655 -2.47E-04
    16 OT DIIS     0.15E+00    1.7     0.00000294    -21718.8373790673 -2.45E-04
    17 OT DIIS     0.15E+00    1.7     0.00000293    -21718.8375265402 -1.47E-04
    18 OT DIIS     0.15E+00    1.7     0.00000291    -21718.8376418928 -1.15E-04
    19 OT DIIS     0.15E+00    1.7     0.00000290    -21718.8377925332 -1.51E-04
    20 OT DIIS     0.15E+00    1.7     0.00000288    -21718.8378947512 -1.02E-04
    21 OT DIIS     0.15E+00    1.7     0.00000288    -21718.8379604114 -6.57E-05
    22 OT DIIS     0.15E+00    1.7     0.00000287    -21718.8380052428 -4.48E-05
    23 OT DIIS     0.15E+00    1.7     0.00000286    -21718.8380721023 -6.69E-05
    24 OT DIIS     0.15E+00    1.7     0.00000284    -21718.8381418508 -6.97E-05
    25 OT DIIS     0.15E+00    1.7     0.00000284    -21718.8381801433 -3.83E-05
    26 OT DIIS     0.15E+00    1.7     0.00000283    -21718.8382074889 -2.73E-05
    27 OT DIIS     0.15E+00    1.7     0.00000283    -21718.8382583877 -5.09E-05
    28 OT DIIS     0.15E+00    1.7     0.00000282    -21718.8382871269 -2.87E-05
    29 OT DIIS     0.15E+00    1.7     0.00000282    -21718.8383113155 -2.42E-05
    30 OT DIIS     0.15E+00    3.7     0.00000282    -21718.8383328154 -2.15E-05

  Leaving inner SCF loop after reaching    30 steps.


  Electronic density on regular grids:      -3248.0000000095       -0.0000000095
  Core density on regular grids:             3247.9999999999       -0.0000000001
  Total charge density on r-space grids:       -0.0000000096
  Total charge density g-space grids:          -0.0000000096

  Overlap energy of the core charge distribution:               0.00000128249918
  Self energy of the core charge distribution:             -32922.51341626739304
  Core Hamiltonian energy:                                   7362.83904363987131
  Hartree energy:                                            6038.43688224863581
  Exchange-correlation energy:                              -2213.61173147995760
  Dispersion energy:                                           16.01088776092687

  Total energy:                                            -21718.83833281541956

  outer SCF iter =   10 RMS gradient =   0.28E-05 energy =     -21718.8383328154

  ----------------------------------- OT ---------------------------------------
  Minimizer      : DIIS                : direct inversion
                                         in the iterative subspace
                                         using   7 DIIS vectors
                                         safer DIIS on
  Preconditioner : FULL_KINETIC        : inversion of T + eS
  Precond_solver : DEFAULT
  stepsize       :    0.15000000                  energy_gap     :    0.20000000
  eps_taylor     :   0.10000E-15                  max_taylor     :             4
  ----------------------------------- OT ---------------------------------------

  Step     Update method      Time    Convergence         Total energy    Change
  ------------------------------------------------------------------------------
     1 OT DIIS     0.15E+00    5.7     0.00000281    -21718.8383794755 -4.67E-05
     2 OT DIIS     0.15E+00    1.7     0.00000282    -21718.8383884971 -9.02E-06
     3 OT DIIS     0.15E+00    1.7     0.00000280    -21718.8383919041 -3.41E-06
     4 OT DIIS     0.15E+00    1.7     0.00000280    -21718.8384115223 -1.96E-05
     5 OT DIIS     0.15E+00    1.7     0.00000279    -21718.8384700648 -5.85E-05
     6 OT DIIS     0.15E+00    1.7     0.00000279    -21718.8384937160 -2.37E-05
     7 OT DIIS     0.15E+00    1.7     0.00000279    -21718.8385956875 -1.02E-04
     8 OT DIIS     0.15E+00    1.7     0.00000277    -21718.8388056314 -2.10E-04
     9 OT DIIS     0.15E+00    1.7     0.00000276    -21718.8389900518 -1.84E-04
    10 OT DIIS     0.15E+00    1.7     0.00000275    -21718.8391770823 -1.87E-04
    11 OT DIIS     0.15E+00    1.7     0.00000273    -21718.8399113755 -7.34E-04
    12 OT DIIS     0.15E+00    1.8     0.00000266    -21718.8407132094 -8.02E-04
    13 OT DIIS     0.15E+00    1.7     0.00000263    -21718.8408485199 -1.35E-04
    14 OT DIIS     0.15E+00    1.7     0.00000262    -21718.8412933353 -4.45E-04
    15 OT DIIS     0.15E+00    2.0     0.00000258    -21718.8419614128 -6.68E-04
    16 OT DIIS     0.15E+00    1.9     0.00000250    -21718.8426914220 -7.30E-04
    17 OT DIIS     0.15E+00    1.9     0.00000246    -21718.8431324479 -4.41E-04
    18 OT DIIS     0.15E+00    1.9     0.00000243    -21718.8434497793 -3.17E-04
    19 OT DIIS     0.15E+00    1.9     0.00000241    -21718.8436541828 -2.04E-04
    20 OT DIIS     0.15E+00    1.9     0.00000237    -21718.8438034199 -1.49E-04
    21 OT SD       0.15E+00    1.9     0.00000233    -21718.8440801739 -2.77E-04
    22 OT DIIS     0.15E+00    1.9     0.00000232    -21718.8440863489 -6.18E-06
    23 OT DIIS     0.15E+00    1.9     0.00000230    -21718.8441916807 -1.05E-04
    24 OT DIIS     0.15E+00    1.9     0.00000227    -21718.8442551103 -6.34E-05
    25 OT DIIS     0.15E+00    1.9     0.00000226    -21718.8442706774 -1.56E-05
    26 OT DIIS     0.15E+00    1.9     0.00000225    -21718.8443148212 -4.41E-05
    27 OT SD       0.15E+00    1.9     0.00000224    -21718.8443511814 -3.64E-05
    28 OT DIIS     0.15E+00    1.9     0.00000230    -21718.8443567721 -5.59E-06
    29 OT DIIS     0.15E+00    1.9     0.00000221    -21718.8444274459 -7.07E-05
    30 OT DIIS     0.15E+00    1.9     0.00000220    -21718.8444431698 -1.57E-05

  Leaving inner SCF loop after reaching    30 steps.


  Electronic density on regular grids:      -3247.9999999981        0.0000000019
  Core density on regular grids:             3247.9999999999       -0.0000000001
  Total charge density on r-space grids:        0.0000000018
  Total charge density g-space grids:           0.0000000018

  Overlap energy of the core charge distribution:               0.00000128249918
  Self energy of the core charge distribution:             -32922.51341626739304
  Core Hamiltonian energy:                                   7362.74325164230140
  Hartree energy:                                            6038.50448742663502
  Exchange-correlation energy:                              -2213.58910255047113
  Dispersion energy:                                           16.01033529660504

  Total energy:                                            -21718.84444316982990

  outer SCF iter =   11 RMS gradient =   0.22E-05 energy =     -21718.8444431698

  ----------------------------------- OT ---------------------------------------
  Minimizer      : DIIS                : direct inversion
                                         in the iterative subspace
                                         using   7 DIIS vectors
                                         safer DIIS on
  Preconditioner : FULL_KINETIC        : inversion of T + eS
  Precond_solver : DEFAULT
  stepsize       :    0.15000000                  energy_gap     :    0.20000000
  eps_taylor     :   0.10000E-15                  max_taylor     :             4
  ----------------------------------- OT ---------------------------------------

  Step     Update method      Time    Convergence         Total energy    Change
  ------------------------------------------------------------------------------
     1 OT DIIS     0.15E+00    4.0     0.00000219    -21718.8444848000 -4.16E-05
     2 OT DIIS     0.15E+00    1.7     0.00000219    -21718.8444902875 -5.49E-06
     3 OT DIIS     0.15E+00    1.7     0.00000218    -21718.8444942395 -3.95E-06
     4 OT DIIS     0.15E+00    1.7     0.00000217    -21718.8445192891 -2.50E-05
     5 OT DIIS     0.15E+00    1.7     0.00000217    -21718.8445285303 -9.24E-06
     6 OT DIIS     0.15E+00    1.7     0.00000217    -21718.8445541136 -2.56E-05
     7 OT DIIS     0.15E+00    1.7     0.00000216    -21718.8446272821 -7.32E-05
     8 OT DIIS     0.15E+00    1.8     0.00000215    -21718.8446841585 -5.69E-05
     9 OT DIIS     0.15E+00    1.7     0.00000214    -21718.8447352399 -5.11E-05
    10 OT DIIS     0.15E+00    1.7     0.00000214    -21718.8448141859 -7.89E-05
    11 OT DIIS     0.15E+00    1.7     0.00000212    -21718.8449134336 -9.92E-05
    12 OT DIIS     0.15E+00    1.7     0.00000212    -21718.8449774556 -6.40E-05
    13 OT DIIS     0.15E+00    1.7     0.00000211    -21718.8450268850 -4.94E-05
    14 OT DIIS     0.15E+00    1.7     0.00000211    -21718.8450895686 -6.27E-05
    15 OT DIIS     0.15E+00    1.7     0.00000210    -21718.8451637358 -7.42E-05
    16 OT DIIS     0.15E+00    1.7     0.00000209    -21718.8452099518 -4.62E-05
    17 OT DIIS     0.15E+00    3.7     0.00000209    -21718.8452512261 -4.13E-05
    18 OT DIIS     0.15E+00    1.7     0.00000208    -21718.8452952960 -4.41E-05
    19 OT DIIS     0.15E+00    1.7     0.00000208    -21718.8453408007 -4.55E-05
    20 OT DIIS     0.15E+00    1.7     0.00000208    -21718.8453659533 -2.52E-05
    21 OT DIIS     0.15E+00    1.7     0.00000207    -21718.8453869474 -2.10E-05
    22 OT DIIS     0.15E+00    1.7     0.00000207    -21718.8454046182 -1.77E-05
    23 OT DIIS     0.15E+00    1.7     0.00000207    -21718.8454237229 -1.91E-05
    24 OT DIIS     0.15E+00    1.7     0.00000207    -21718.8454349048 -1.12E-05
    25 OT DIIS     0.15E+00    1.7     0.00000206    -21718.8454481477 -1.32E-05
    26 OT DIIS     0.15E+00    1.7     0.00000206    -21718.8454651291 -1.70E-05
    27 OT DIIS     0.15E+00    1.7     0.00000206    -21718.8454815158 -1.64E-05
    28 OT DIIS     0.15E+00    1.7     0.00000206    -21718.8454923559 -1.08E-05
    29 OT DIIS     0.15E+00    1.7     0.00000206    -21718.8455040603 -1.17E-05
    30 OT DIIS     0.15E+00    1.7     0.00000206    -21718.8455201800 -1.61E-05

  Leaving inner SCF loop after reaching    30 steps.


  Electronic density on regular grids:      -3247.9999999982        0.0000000018
  Core density on regular grids:             3247.9999999999       -0.0000000001
  Total charge density on r-space grids:        0.0000000017
  Total charge density g-space grids:           0.0000000017

  Overlap energy of the core charge distribution:               0.00000128249918
  Self energy of the core charge distribution:             -32922.51341626739304
  Core Hamiltonian energy:                                   7362.71996778178800
  Hartree energy:                                            6038.52101869701073
  Exchange-correlation energy:                              -2213.58328362987231
  Dispersion energy:                                           16.01019195595346

  Total energy:                                            -21718.84552018001705

  outer SCF iter =   12 RMS gradient =   0.21E-05 energy =     -21718.8455201800

  ----------------------------------- OT ---------------------------------------
  Minimizer      : DIIS                : direct inversion
                                         in the iterative subspace
                                         using   7 DIIS vectors
                                         safer DIIS on
  Preconditioner : FULL_KINETIC        : inversion of T + eS
  Precond_solver : DEFAULT
  stepsize       :    0.15000000                  energy_gap     :    0.20000000
  eps_taylor     :   0.10000E-15                  max_taylor     :             4
  ----------------------------------- OT ---------------------------------------

  Step     Update method      Time    Convergence         Total energy    Change
  ------------------------------------------------------------------------------
     1 OT DIIS     0.15E+00    3.7     0.00000205    -21718.8455407601 -2.06E-05
     2 OT DIIS     0.15E+00    1.7     0.00000205    -21718.8455455933 -4.83E-06
     3 OT DIIS     0.15E+00    1.7     0.00000205    -21718.8455478244 -2.23E-06
     4 OT DIIS     0.15E+00    1.7     0.00000205    -21718.8455654064 -1.76E-05
     5 OT DIIS     0.15E+00    1.7     0.00000205    -21718.8455982571 -3.29E-05
     6 OT DIIS     0.15E+00    1.7     0.00000205    -21718.8456169310 -1.87E-05
     7 OT DIIS     0.15E+00    1.7     0.00000204    -21718.8457477262 -1.31E-04
     8 OT DIIS     0.15E+00    1.7     0.00000203    -21718.8458788615 -1.31E-04
     9 OT DIIS     0.15E+00    1.7     0.00000202    -21718.8460162271 -1.37E-04
    10 OT DIIS     0.15E+00    1.7     0.00000201    -21718.8462626423 -2.46E-04
    11 OT DIIS     0.15E+00    1.7     0.00000200    -21718.8470119604 -7.49E-04
    12 OT SD       0.15E+00    1.7     0.00000197    -21718.8473565076 -3.45E-04
    13 OT DIIS     0.15E+00    1.7     0.00000192    -21718.8473607907 -4.28E-06
    14 OT DIIS     0.15E+00    1.9     0.00000202    -21718.8480897418 -7.29E-04
    15 OT DIIS     0.15E+00    1.9     0.00000184    -21718.8484596560 -3.70E-04
    16 OT DIIS     0.15E+00    1.9     0.00000179    -21718.8490354514 -5.76E-04
    17 OT DIIS     0.15E+00    1.9     0.00000174    -21718.8493077118 -2.72E-04
    18 OT DIIS     0.15E+00    1.9     0.00000171    -21718.8494619323 -1.54E-04
    19 OT DIIS     0.15E+00    1.9     0.00000172    -21718.8496447125 -1.83E-04
    20 OT SD       0.15E+00    1.9     0.00000182    -21718.8499808339 -3.36E-04
    21 OT DIIS     0.15E+00    1.9     0.00000177    -21718.8499840557 -3.22E-06
    22 OT DIIS     0.15E+00    1.9     0.00000167    -21718.8502307308 -2.47E-04
    23 OT DIIS     0.15E+00    1.9     0.00000163    -21718.8503812038 -1.50E-04
    24 OT DIIS     0.15E+00    1.9     0.00000158    -21718.8504990487 -1.18E-04
    25 OT DIIS     0.15E+00    1.9     0.00000158    -21718.8506959318 -1.97E-04
    26 OT DIIS     0.15E+00    1.9     0.00000156    -21718.8509768708 -2.81E-04
    27 OT DIIS     0.15E+00    1.9     0.00000144    -21718.8513481474 -3.71E-04
    28 OT DIIS     0.15E+00    1.9     0.00000144    -21718.8514388800 -9.07E-05
    29 OT DIIS     0.15E+00    1.9     0.00000140    -21718.8515238576 -8.50E-05
    30 OT DIIS     0.15E+00    1.9     0.00000139    -21718.8515786300 -5.48E-05

  Leaving inner SCF loop after reaching    30 steps.


  Electronic density on regular grids:      -3247.9999999982        0.0000000018
  Core density on regular grids:             3247.9999999999       -0.0000000001
  Total charge density on r-space grids:        0.0000000017
  Total charge density g-space grids:           0.0000000017

  Overlap energy of the core charge distribution:               0.00000128249918
  Self energy of the core charge distribution:             -32922.51341626739304
  Core Hamiltonian energy:                                   7362.52002350341900
  Hartree energy:                                            6038.66410291048851
  Exchange-correlation energy:                              -2213.53122485499171
  Dispersion energy:                                           16.00893479598013

  Total energy:                                            -21718.85157863000131

  outer SCF iter =   13 RMS gradient =   0.14E-05 energy =     -21718.8515786300

  ----------------------------------- OT ---------------------------------------
  Minimizer      : DIIS                : direct inversion
                                         in the iterative subspace
                                         using   7 DIIS vectors
                                         safer DIIS on
  Preconditioner : FULL_KINETIC        : inversion of T + eS
  Precond_solver : DEFAULT
  stepsize       :    0.15000000                  energy_gap     :    0.20000000
  eps_taylor     :   0.10000E-15                  max_taylor     :             4
  ----------------------------------- OT ---------------------------------------

  Step     Update method      Time    Convergence         Total energy    Change
  ------------------------------------------------------------------------------
     1 OT DIIS     0.15E+00    4.0     0.00000139    -21718.8515833903 -4.76E-06
     2 OT DIIS     0.15E+00    1.7     0.00000138    -21718.8515855319 -2.14E-06
     3 OT DIIS     0.15E+00    1.7     0.00000136    -21718.8515867330 -1.20E-06
     4 OT DIIS     0.15E+00    1.7     0.00000134    -21718.8515891525 -2.42E-06
     5 OT DIIS     0.15E+00    1.7     0.00000133    -21718.8515939164 -4.76E-06
     6 OT DIIS     0.15E+00    1.7     0.00000132    -21718.8515985742 -4.66E-06
     7 OT DIIS     0.15E+00    1.7     0.00000132    -21718.8516039434 -5.37E-06
     8 OT DIIS     0.15E+00    1.7     0.00000131    -21718.8516117373 -7.79E-06
     9 OT DIIS     0.15E+00    1.7     0.00000130    -21718.8516247827 -1.30E-05
    10 OT DIIS     0.15E+00    1.7     0.00000130    -21718.8516347796 -1.00E-05
    11 OT DIIS     0.15E+00    1.7     0.00000130    -21718.8516465814 -1.18E-05
    12 OT DIIS     0.15E+00    1.7     0.00000129    -21718.8516577393 -1.12E-05
    13 OT DIIS     0.15E+00    1.7     0.00000129    -21718.8516743708 -1.66E-05
    14 OT DIIS     0.15E+00    1.7     0.00000128    -21718.8516888775 -1.45E-05
    15 OT DIIS     0.15E+00    1.7     0.00000128    -21718.8517048146 -1.59E-05
    16 OT DIIS     0.15E+00    1.7     0.00000127    -21718.8517209113 -1.61E-05
    17 OT DIIS     0.15E+00    1.7     0.00000127    -21718.8517361646 -1.53E-05
    18 OT DIIS     0.15E+00    1.7     0.00000126    -21718.8517472491 -1.11E-05
    19 OT DIIS     0.15E+00    1.7     0.00000126    -21718.8517569321 -9.68E-06
    20 OT DIIS     0.15E+00    1.7     0.00000126    -21718.8517665214 -9.59E-06
    21 OT DIIS     0.15E+00    1.7     0.00000126    -21718.8517752596 -8.74E-06
    22 OT DIIS     0.15E+00    1.7     0.00000126    -21718.8517822490 -6.99E-06
    23 OT DIIS     0.15E+00    1.7     0.00000125    -21718.8517893147 -7.07E-06
    24 OT DIIS     0.15E+00    1.7     0.00000125    -21718.8517952948 -5.98E-06
    25 OT DIIS     0.15E+00    1.7     0.00000125    -21718.8518015905 -6.30E-06
    26 OT DIIS     0.15E+00    1.7     0.00000125    -21718.8518064895 -4.90E-06
    27 OT DIIS     0.15E+00    1.7     0.00000125    -21718.8518118241 -5.33E-06
    28 OT DIIS     0.15E+00    1.7     0.00000125    -21718.8518168967 -5.07E-06
    29 OT DIIS     0.15E+00    1.7     0.00000125    -21718.8518211484 -4.25E-06
    30 OT DIIS     0.15E+00    1.7     0.00000125    -21718.8518246622 -3.51E-06

  Leaving inner SCF loop after reaching    30 steps.


  Electronic density on regular grids:      -3247.9999999980        0.0000000020
  Core density on regular grids:             3247.9999999999       -0.0000000001
  Total charge density on r-space grids:        0.0000000019
  Total charge density g-space grids:           0.0000000019

  Overlap energy of the core charge distribution:               0.00000128249918
  Self energy of the core charge distribution:             -32922.51341626739304
  Core Hamiltonian energy:                                   7362.50732726143451
  Hartree energy:                                            6038.67320719599684
  Exchange-correlation energy:                              -2213.52780287809082
  Dispersion energy:                                           16.00885874331584

  Total energy:                                            -21718.85182466224069

  outer SCF iter =   14 RMS gradient =   0.12E-05 energy =     -21718.8518246622

  ----------------------------------- OT ---------------------------------------
  Minimizer      : DIIS                : direct inversion
                                         in the iterative subspace
                                         using   7 DIIS vectors
                                         safer DIIS on
  Preconditioner : FULL_KINETIC        : inversion of T + eS
  Precond_solver : DEFAULT
  stepsize       :    0.15000000                  energy_gap     :    0.20000000
  eps_taylor     :   0.10000E-15                  max_taylor     :             4
  ----------------------------------- OT ---------------------------------------

  Step     Update method      Time    Convergence         Total energy    Change
  ------------------------------------------------------------------------------
     1 OT DIIS     0.15E+00    3.8     0.00000124    -21718.8518288643 -4.20E-06
     2 OT DIIS     0.15E+00    1.7     0.00000124    -21718.8518306380 -1.77E-06
     3 OT DIIS     0.15E+00    1.7     0.00000124    -21718.8518313324 -6.94E-07
     4 OT DIIS     0.15E+00    1.7     0.00000124    -21718.8518383240 -6.99E-06
     5 OT DIIS     0.15E+00    1.7     0.00000124    -21718.8518629805 -2.47E-05
     6 OT DIIS     0.15E+00    1.7     0.00000124    -21718.8518745437 -1.16E-05
     7 OT DIIS     0.15E+00    1.7     0.00000123    -21718.8519597174 -8.52E-05
     8 OT DIIS     0.15E+00    1.7     0.00000122    -21718.8520504036 -9.07E-05
     9 OT DIIS     0.15E+00    1.7     0.00000121    -21718.8521167048 -6.63E-05
    10 OT DIIS     0.15E+00    1.7     0.00000120    -21718.8521728376 -5.61E-05
    11 OT DIIS     0.15E+00    1.7     0.00000119    -21718.8523316164 -1.59E-04
    12 OT DIIS     0.15E+00    1.7     0.00000116    -21718.8525352259 -2.04E-04
    13 OT DIIS     0.15E+00    1.7     0.00000115    -21718.8526194135 -8.42E-05
    14 OT DIIS     0.15E+00    1.7     0.00000114    -21718.8526867268 -6.73E-05
    15 OT DIIS     0.15E+00    1.7     0.00000112    -21718.8528190549 -1.32E-04
    16 OT DIIS     0.15E+00    1.7     0.00000111    -21718.8529004216 -8.14E-05
    17 OT DIIS     0.15E+00    1.7     0.00000110    -21718.8529508918 -5.05E-05
    18 OT SD       0.15E+00    1.7     0.00000109    -21718.8529783404 -2.74E-05
    19 OT DIIS     0.15E+00    1.7     0.00000110    -21718.8529796903 -1.35E-06
    20 OT DIIS     0.15E+00    1.8     0.00000108    -21718.8530175355 -3.78E-05
    21 OT DIIS     0.15E+00    1.7     0.00000107    -21718.8530572299 -3.97E-05
    22 OT DIIS     0.15E+00    1.7     0.00000106    -21718.8530885002 -3.13E-05
    23 OT DIIS     0.15E+00    1.7     0.00000105    -21718.8531312954 -4.28E-05
    24 OT DIIS     0.15E+00    1.7     0.00000103    -21718.8531893350 -5.80E-05
    25 OT DIIS     0.15E+00    1.7     0.00000103    -21718.8532289279 -3.96E-05
    26 OT DIIS     0.15E+00    1.7     0.00000102    -21718.8532758003 -4.69E-05
    27 OT DIIS     0.15E+00    1.8     0.00000101    -21718.8533274997 -5.17E-05
    28 OT DIIS     0.15E+00    1.9     0.00000100    -21718.8533944286 -6.69E-05

  *** SCF run converged in    28 steps ***


  Electronic density on regular grids:      -3247.9999999977        0.0000000023
  Core density on regular grids:             3247.9999999999       -0.0000000001
  Total charge density on r-space grids:        0.0000000022
  Total charge density g-space grids:           0.0000000022

  Overlap energy of the core charge distribution:               0.00000128249918
  Self energy of the core charge distribution:             -32922.51341626739304
  Core Hamiltonian energy:                                   7362.39614726907439
  Hartree energy:                                            6038.75363943251978
  Exchange-correlation energy:                              -2213.49792087419155
  Dispersion energy:                                           16.00815472885465

  Total energy:                                            -21718.85339442864279

  outer SCF iter =   15 RMS gradient =   0.10E-05 energy =     -21718.8533944286
  outer SCF loop converged in  15 iterations or  448 steps


 ENERGY| Total FORCE_EVAL ( QS ) energy [a.u.]:           -21718.853444875705463

 --------  Informations at step =     0 ------------
  Optimization Method        =                 BFGS
  Total Energy               =    -21718.8534448757
  Used time                  =              832.476
 ---------------------------------------------------

 --------------------------
 OPTIMIZATION STEP:      1
 --------------------------

  Step is scaled; Scaling factor =  0.44470

 Number of electrons:                                                       3248
 Number of occupied orbitals:                                               1624
 Number of molecular orbitals:                                              1624

 Number of orbital functions:                                               4713
 Number of independent orbital functions:                                   4713

 Extrapolation method: ASPC


 SCF WAVEFUNCTION OPTIMIZATION

  ----------------------------------- OT ---------------------------------------
  Minimizer      : DIIS                : direct inversion
                                         in the iterative subspace
                                         using   7 DIIS vectors
                                         safer DIIS on
  Preconditioner : FULL_KINETIC        : inversion of T + eS
  Precond_solver : DEFAULT
  stepsize       :    0.15000000                  energy_gap     :    0.20000000
  eps_taylor     :   0.10000E-15                  max_taylor     :             4
  ----------------------------------- OT ---------------------------------------

  Step     Update method      Time    Convergence         Total energy    Change
  ------------------------------------------------------------------------------
     1 OT DIIS     0.15E+00    1.6     0.00005296    -21718.8859461037 -2.17E+04
     2 OT DIIS     0.15E+00    1.7     0.00003088    -21718.8877992034 -1.85E-03
     3 OT DIIS     0.15E+00    1.7     0.00002206    -21718.8884018210 -6.03E-04
     4 OT DIIS     0.15E+00    1.7     0.00002048    -21718.8888804752 -4.79E-04
     5 OT DIIS     0.15E+00    1.8     0.00001341    -21718.8891662209 -2.86E-04
     6 OT DIIS     0.15E+00    1.7     0.00001086    -21718.8894148879 -2.49E-04
     7 OT DIIS     0.15E+00    1.7     0.00000864    -21718.8895480847 -1.33E-04
     8 OT DIIS     0.15E+00    1.7     0.00000730    -21718.8897112047 -1.63E-04
     9 OT DIIS     0.15E+00    1.7     0.00000602    -21718.8898130758 -1.02E-04
    10 OT DIIS     0.15E+00    1.7     0.00000538    -21718.8899018434 -8.88E-05
    11 OT DIIS     0.15E+00    1.7     0.00000492    -21718.8899666935 -6.49E-05
    12 OT DIIS     0.15E+00    1.7     0.00000435    -21718.8900493340 -8.26E-05
    13 OT DIIS     0.15E+00    1.7     0.00000397    -21718.8901040611 -5.47E-05
    14 OT DIIS     0.15E+00    1.7     0.00000371    -21718.8901514806 -4.74E-05
    15 OT DIIS     0.15E+00    1.7     0.00000352    -21718.8901903568 -3.89E-05
    16 OT DIIS     0.15E+00    1.7     0.00000326    -21718.8902360319 -4.57E-05
    17 OT DIIS     0.15E+00    1.7     0.00000306    -21718.8902748551 -3.88E-05
    18 OT DIIS     0.15E+00    1.7     0.00000292    -21718.8903072505 -3.24E-05
    19 OT DIIS     0.15E+00    1.7     0.00000278    -21718.8903362320 -2.90E-05
    20 OT DIIS     0.15E+00    1.8     0.00000266    -21718.8903653063 -2.91E-05
    21 OT DIIS     0.15E+00    1.7     0.00000255    -21718.8903917935 -2.65E-05
    22 OT DIIS     0.15E+00    1.7     0.00000246    -21718.8904166397 -2.48E-05
    23 OT DIIS     0.15E+00    1.7     0.00000238    -21718.8904427529 -2.61E-05
    24 OT DIIS     0.15E+00    1.7     0.00000231    -21718.8904666182 -2.39E-05
    25 OT DIIS     0.15E+00    1.7     0.00000225    -21718.8904875474 -2.09E-05
    26 OT DIIS     0.15E+00    1.7     0.00000218    -21718.8905077050 -2.02E-05
    27 OT DIIS     0.15E+00    1.7     0.00000214    -21718.8905276675 -2.00E-05
    28 OT DIIS     0.15E+00    1.7     0.00000207    -21718.8905513042 -2.36E-05
    29 OT DIIS     0.15E+00    1.7     0.00000203    -21718.8905732064 -2.19E-05
    30 OT DIIS     0.15E+00    1.7     0.00000196    -21718.8905962667 -2.31E-05

  Leaving inner SCF loop after reaching    30 steps.


  Electronic density on regular grids:      -3248.0000000010       -0.0000000010
  Core density on regular grids:             3248.0000000000        0.0000000000
  Total charge density on r-space grids:       -0.0000000010
  Total charge density g-space grids:          -0.0000000010

  Overlap energy of the core charge distribution:               0.00000117347908
  Self energy of the core charge distribution:             -32922.51341626739304
  Core Hamiltonian energy:                                   7361.57689089953237
  Hartree energy:                                            6039.27406779016019
  Exchange-correlation energy:                              -2213.25320694915308
  Dispersion energy:                                           16.02506708669116

  Total energy:                                            -21718.89059626668313

  outer SCF iter =    1 RMS gradient =   0.20E-05 energy =     -21718.8905962667

  ----------------------------------- OT ---------------------------------------
  Minimizer      : DIIS                : direct inversion
                                         in the iterative subspace
                                         using   7 DIIS vectors
                                         safer DIIS on
  Preconditioner : FULL_KINETIC        : inversion of T + eS
[...]
 flops   299 x    96 x    96       10320703690752       0.0%    100.0%      0.0%
 flops    96 x   128 x   286       11410731171840       0.0%    100.0%      0.0%
 flops   128 x    96 x   286       11410731171840       0.0%    100.0%      0.0%
 flops    26 x    26 x   128       13057988935680       0.0%    100.0%      0.0%
 flops   286 x    96 x   291       13639689423360       0.0%    100.0%      0.0%
 flops   291 x    96 x   286       13639689423360       0.0%    100.0%      0.0%
 flops   286 x   128 x    96       14175147098112       0.0%    100.0%      0.0%
 flops   286 x    96 x   128       14175147098112       0.0%    100.0%      0.0%
 flops   286 x    96 x   312       14623996907520       0.0%    100.0%      0.0%
 flops   312 x    96 x   286       14623996907520       0.0%    100.0%      0.0%
 flops   286 x    96 x   286       23459328372480       0.0%    100.0%      0.0%
 flops    96 x    96 x   291       32342754263040       0.0%    100.0%      0.0%
 flops    96 x    96 x   312       34676767457280       0.0%    100.0%      0.0%
 flops   291 x    96 x    96       40178257846272       0.0%    100.0%      0.0%
 flops   312 x    96 x    96       43077719752704       0.0%    100.0%      0.0%
 flops    96 x    96 x    96       45192536064000       0.0%    100.0%      0.0%
 flops    96 x    96 x   286       55627314462720       0.0%    100.0%      0.0%
 flops    26 x    26 x    96       63657696061440       0.0%    100.0%      0.0%
 flops   286 x    96 x    96       69103842103296       0.0%    100.0%      0.0%
 flops    26 x    32 x    26      339014108160000       0.0%    100.0%      0.0%
 flops inhomo. stacks              25879662157440     100.0%      0.0%      0.0%
 flops total                         1.200083E+15       2.2%     97.8%      0.0%
 flops max/rank                      6.335779E+12       2.3%     97.7%      0.0%
 matmuls inhomo. stacks                   2883840     100.0%      0.0%      0.0%
 matmuls total                         9220424291       0.0%    100.0%      0.0%
 number of processed stacks             190856345       1.5%     98.5%      0.0%
 average stack size                                     1.0      49.0       0.0
 marketing flops                     1.286479E+15
 -------------------------------------------------------------------------------
 # multiplications                          41308
 max memory usage/rank             391.823360E+06
 # max total images/rank                        1
 # max 3D layers                                1
 # MPI messages exchanged               317245440
 MPI messages size (bytes):
  total size                        67.492332E+12
  min size                           0.000000E+00
  max size                         778.752000E+03
  average size                     212.744844E+03
 MPI breakdown and total messages size (bytes):
             size <=      128             1037760                        0
       128 < size <=     8192                   0                        0
      8192 < size <=    32768               22080                571607040
     32768 < size <=   131072           131831040           10865250654720
    131072 < size <=  4194304           184354560           56641859925840
   4194304 < size <= 16777216                   0                        0
  16777216 < size                               0                        0
 -------------------------------------------------------------------------------
 -                                                                             -
 -                      DBCSR MESSAGE PASSING PERFORMANCE                      -
 -                                                                             -
 -------------------------------------------------------------------------------
 ROUTINE             CALLS      AVE VOLUME [Bytes]
 MP_Bcast              178                     12.
 MP_Allreduce       224601                     10.
 MP_Alltoall        128519                  92200.
 MP_ISend          2643344                 111831.
 MP_IRecv          2643344                 110967.
 -------------------------------------------------------------------------------

 -------------------------------------------------------------------------------
 -                                                                             -
 -                                DBM STATISTICS                               -
 -                                                                             -
 -------------------------------------------------------------------------------
    M  x    N  x    K                                          COUNT     PERCENT
 -------------------------------------------------------------------------------

 -------------------------------------------------------------------------------
 -                                                                             -
 -                                GRID STATISTICS                              -
 -                                                                             -
 -------------------------------------------------------------------------------
 LP    KERNEL             BACKEND                              COUNT     PERCENT
 6     collocate general  REF                              594838506      45.83%
 6     integrate general  REF                              586633649      45.20%
 4     collocate general  REF                               41105521       3.17%
 4     integrate general  REF                               40544734       3.12%
 5     integrate general  REF                                9602531       0.74%
 5     collocate general  REF                                9175899       0.71%
 7     integrate general  REF                                8067979       0.62%
 2     collocate general  REF                                1744432       0.13%
 2     integrate general  REF                                1719970       0.13%
 0     collocate general  REF                                1515520       0.12%
 1     integrate general  REF                                1468160       0.11%
 3     integrate general  REF                                 715678       0.06%
 3     collocate general  REF                                 701806       0.05%
 -------------------------------------------------------------------------------

 MEMORY| Estimated peak process memory [MiB]                                 374

 -------------------------------------------------------------------------------
 -                                                                             -
 -                         MESSAGE PASSING PERFORMANCE                         -
 -                                                                             -
 -------------------------------------------------------------------------------

 ROUTINE             CALLS      AVE VOLUME [Bytes]
 MP_Group                5
 MP_Bcast            21056                  31628.
 MP_Allreduce        60295                    410.
 MP_Sync             37051
 MP_Alltoall        311244              291276632.
 MP_ISendRecv      3495285                   6789.
 MP_Wait           3766179
 MP_comm_split         247
 MP_ISend           864416                 106589.
 MP_IRecv           864682                 106557.
 MP_Recv              2110                 949244.
 -------------------------------------------------------------------------------


 -------------------------------------------------------------------------------
 -                                                                             -
 -                           R E F E R E N C E S                               -
 -                                                                             -
 -------------------------------------------------------------------------------
 
 CP2K version 2022.1 (Development Version), the CP2K developers group (2022).
 CP2K is freely available from https://www.cp2k.org/ .

 Kuehne,Thomas D.; Iannuzzi,Marcella; Del Ben,Mauro;
 Rybkin,Vladimir V.; Seewald,Patrick; Stein,Frederick; Laino,Teodoro;
 Khaliullin,Rustam Z.; Schuett,Ole; Schiffmann,Florian; Golze,Dorothea;
 Wilhelm,Jan; Chulkov,Sergey; Bani-Hashemian,Mohammad Hossein;
 Weber,Valery; Borstnik,Urban; Taillefumier,Mathieu;
 Jakobovits,Alice Shoshana; Lazzaro,Alfio; Pabst,Hans; Mueller,Tiziano;
 Schade,Robert; Guidon,Manuel; Andermatt,Samuel; Holmberg,Nico;
 Schenter,Gregory K.; Hehn,Anna; Bussy,Augustin; Belleflamme,Fabian;
 Tabacchi,Gloria; Gloess,Andreas; Lass,Michael; Bethune,Iain;
 Mundy,Christopher J.; Plessl,Christian; Watkins,Matt;
 VandeVondele,Joost; Krack,Matthias; Hutter,Juerg. 
 The Journal of Chemical Physics, 152 (19), (2020). 
 CP2K: An electronic structure and molecular dynamics software package -
 Quickstep: Efficient and accurate electronic structure calculations.
 https://doi.org/10.1063/5.0007045

 Lehtola, S; Steigemann, C; Oliveira, MJT; Marques, MAL. 
 SoftwareX, 7, 1-5 (2018). 
 Recent developments in libxc - A comprehensive library of functionals
 for density functional theory.
 https://doi.org/10.1016/j.softx.2017.11.002

 Schuett, Ole; Messmer, Peter; Hutter, Juerg; VandeVondele, Joost. 
 Electronic Structure Calculations on Graphics Processing Units, John
 Wiley & Sons, Ltd, 173-190 (2016). 
 GPU-Accelerated Sparse Matrix-Matrix Multiplication for
 Linear Scaling Density Functional Theory.
 https://doi.org/10.1002/9781118670712.ch8

 Heinecke, A; Henry, G; Hutchinson, M; Pabst, H. 
 Proceedings of Intl. Supercomputing Conference, 981-991 (2016). 
 LIBXSMM: Accelerating Small Matrix Multiplications
 by Runtime Code Generation.
 https://doi.org/10.1109/SC.2016.83

 Borstnik, U; VandeVondele, J; Weber, V; Hutter, J. 
 PARALLEL COMPUTING, 40 (5-6), 47-58 (2014). 
 Sparse matrix multiplication: The distributed block-compressed sparse
 row library.
 https://doi.org/10.1016/j.parco.2014.03.012

 Hutter, J; Iannuzzi, M; Schiffmann, F; VandeVondele, J. 
 WIREs Comput Mol Sci., 4 (1), 15-25 (2014). 
 CP2K: atomistic simulations of condensed matter systems.
 https://doi.org/10.1002/wcms.1159

 Marek, A; Blum, V; Johanni, R; Havu, V; Lang, B; Auckenthaler, T;
 Heinecke, A; Bungartz, H; Lederer, H. 
 Journal of Physics: Condensed Matter, 26 (21), (2014). 
 The ELPA library: scalable parallel eigenvalue solutions for
 electronic structure
 theory and computational science.
 https://doi.org/10.1088/0953-8984/26/21/213201

 Marques, MAL; Oliveira, MJT; Burnus, T. 
 COMPUTER PHYSICS COMMUNICATIONS, 183 (10), 2272-2281 (2012). 
 LIBXC: A library of exchange and correlation functionals for density
 functional theory.
 https://doi.org/10.1016/j.cpc.2012.05.007

 Wellendorff, J; Lundgaard, K; Mogelhoj, A; Petzold, V; Landis, D;
 Norskov, J; Bligaard, T; Jacobsen, K. 
 PHYSICAL REVIEW B, 85 (23), 235149 (2012). 
 Density functionals for surface science: Exchange-correlation model development with Bayesian error estimation.
 https://doi.org/10.1103/PhysRevB.85.235149

 Roman-Perez, G; Soler, JM. 
 Phys. Rev. Lett., 103 (9), 096102 (2009). 
 Efficient Implementation of a van der Waals Density Functional:
 Application to Double-Wall Carbon Nanotubes.
 https://doi.org/10.1103/PhysRevLett.103.096102

 VandeVondele, J; Hutter, J. 
 JOURNAL OF CHEMICAL PHYSICS, 127 (11), 114105 (2007). 
 Gaussian basis sets for accurate calculations on molecular systems in
 gas and condensed phases.
 https://doi.org/10.1063/1.2770708

 Kuhne, TD; Krack, M; Mohamed, FR; Parrinello, M. 
 PHYSICAL REVIEW LETTERS, 98 (6), 066401 (2007). 
 Efficient and accurate Car-Parrinello-like approach to
 Born-Oppenheimer molecular dynamics.
 https://doi.org/10.1103/PhysRevLett.98.066401

 Krack, M. 
 THEORETICAL CHEMISTRY ACCOUNTS, 114 (1-3), 145-152 (2005). 
 Pseudopotentials for H to Kr optimized for gradient-corrected
 exchange-correlation functionals.
 https://doi.org/10.1007/s00214-005-0655-y

 VandeVondele, J; Krack, M; Mohamed, F; Parrinello, M; Chassaing, T;
 Hutter, J. COMPUTER PHYSICS COMMUNICATIONS, 167 (2), 103-128 (2005). 
 QUICKSTEP: Fast and accurate density functional calculations using a
 mixed Gaussian and plane waves approach.
 https://doi.org/10.1016/j.cpc.2004.12.014

 Frigo, M; Johnson, SG. 
 PROCEEDINGS OF THE IEEE, 93 (2), 216-231 (2005). 
 The design and implementation of FFTW3.
 https://doi.org/10.1109/JPROC.2004.840301

 Dion, M; Rydberg, H; Schroder, E; Langreth, DC; Lundqvist, BI. 
 Phys. Rev. Lett., 92 (24), 246401 (2004). 
 Van der Waals density functional for general geometries.
 https://doi.org/10.1103/PhysRevLett.92.246401

 Kolafa, J. 
 JOURNAL OF COMPUTATIONAL CHEMISTRY, 25 (3), 335-342 (2004). 
 Time-reversible always stable predictor-corrector method for
 molecular dynamics of polarizable molecules.
 https://doi.org/10.1002/jcc.10385

 VandeVondele, J; Hutter, J. 
 JOURNAL OF CHEMICAL PHYSICS, 118 (10), 4365-4369 (2003). 
 An efficient orbital transformation method for electronic structure
 calculations.
 https://doi.org/10.1063/1.1543154

 Hartwigsen, C; Goedecker, S; Hutter, J. 
 PHYSICAL REVIEW B, 58 (7), 3641-3662 (1998). 
 Relativistic separable dual-space Gaussian pseudopotentials from H to Rn.
 https://doi.org/10.1103/PhysRevB.58.3641

 Lippert, G; Hutter, J; Parrinello, M. 
 MOLECULAR PHYSICS, 92 (3), 477-487 (1997). 
 A hybrid Gaussian and plane wave density functional scheme.
 https://doi.org/10.1080/002689797170220

 Perdew, JP; Burke, K; Ernzerhof, M. 
 PHYSICAL REVIEW LETTERS, 77 (18), 3865-3868 (1996). 
 Generalized gradient approximation made simple.
 https://doi.org/10.1103/PhysRevLett.77.3865

 Goedecker, S; Teter, M; Hutter, J. 
 PHYSICAL REVIEW B, 54 (3), 1703-1710 (1996). 
 Separable dual-space Gaussian pseudopotentials.
 https://doi.org/10.1103/PhysRevB.54.1703


 -------------------------------------------------------------------------------
 -                                                                             -
 -                                T I M I N G                                  -
 -                                                                             -
 -------------------------------------------------------------------------------
 SUBROUTINE                       CALLS  ASD         SELF TIME        TOTAL TIME
                                MAXIMUM       AVERAGE  MAXIMUM  AVERAGE  MAXIMUM
 CP2K                                 1  1.0    0.016    0.035 4191.727 4191.750
 cp_geo_opt                           1  2.0    0.000    0.001 4190.656 4190.679
 geoopt_bfgs                          1  3.0    0.013    0.018 4190.655 4190.679
 cp_eval_at                          32  4.0    0.006    0.007 4165.695 4165.931
 qs_forces                           31  5.0    0.005    0.006 4036.500 4036.523
 qs_energies                         32  6.0    0.003    0.004 4032.820 4033.102
 scf_env_do_scf                      32  7.0    0.005    0.014 3982.369 3982.395
 scf_env_do_scf_inner_loop         2253  8.0    0.055    0.174 3849.073 3851.270
 rebuild_ks_matrix                 2284  9.9    0.014    0.016 2584.431 2594.446
 qs_ks_build_kohn_sham_matrix      2284 10.9    0.369    0.435 2584.417 2594.435
 qs_ks_update_qs_env               2345  9.0    0.045    0.054 2542.169 2552.038
 qs_vxc_create                     2284 11.9    0.105    0.113 1446.586 1447.066
 calculate_dispersion_nonloc       2284 12.9   67.574   75.690 1246.825 1247.534
 pw_transfer                     178190 14.0   14.062   17.689 1195.023 1231.531
 fft_wrap_pw1pw2                 162202 15.0    2.159    2.539 1170.234 1206.847
 fft_wrap_pw1pw2_150             143926 16.1   68.503   75.486 1142.691 1175.193
 sum_up_and_integrate              2284 11.9    0.664    0.752 1050.776 1053.230
 integrate_v_rspace                2284 12.9    0.076    0.121 1050.104 1052.695
 fft3d_pb                        143926 17.1  269.506  295.809  969.438 1026.951
 rs_pw_transfer                   22908 13.4    0.328    0.475  661.715  881.747
 qs_rho_update_rho_low             2285  9.0    0.018    0.022  859.759  863.090
 calculate_rho_elec                2285 10.0    0.412    0.438  859.741  863.073
 mp_alltoall_z22v                306128 19.0  587.034  743.338  587.034  743.338
 grid_integrate_task_list          2284 13.9  441.497  696.523  441.497  696.523
 grid_collocate_task_list          2285 11.0  438.414  636.626  438.414  636.626
 density_rs2pw                     2285 11.0    0.103    0.147  400.509  621.591
 mp_waitany                      174630 15.4  339.491  586.613  339.491  586.613
 dbcsr_multiply_generic           41308 13.9    1.545    1.685  540.369  567.025
 qs_scf_new_mos                    2253  9.0    0.015    0.020  561.703  566.343
 qs_scf_loop_do_ot                 2253 10.0    0.013    0.018  561.689  566.329
 mp_alltoall_d11v                 25033 15.7  293.278  534.668  293.278  534.668
 ot_scf_mini                       2253 11.0    0.063    0.082  524.107  529.122
 rs_gather_matrices                2284 13.9    1.133    1.775  272.769  516.092
 rs_pw_transfer_RS2PW_150          2317 13.0   46.539   88.986  237.538  470.837
 multiply_cannon                  41308 14.9    2.828    3.605  392.147  464.028
 multiply_cannon_loop             41308 15.9    2.766    3.120  370.226  437.876
 ot_mini                           2253 12.0    0.033    0.046  333.733  340.642
 potential_pw2rs                   2284 13.9    0.110    0.134  335.463  338.584
 cube_transpose_3                 77657 18.0   30.780   39.691  260.693  321.650
 multiply_cannon_multrec         660928 16.9  218.685  292.704  218.825  292.843
 cube_transpose_4                 66269 18.1   36.429   41.876  229.492  281.010
 qs_ot_get_derivative              2253 13.0    0.015    0.022  263.557  268.502
 mp_waitall_1                   9539901 17.1  205.211  261.896  205.211  261.896
 cube_transpose_1                 86793 18.1   25.938   28.752  112.042  234.945
 xc_vxc_pw_create                  2284 12.9    0.929    1.548  199.656  201.042
 rs_pw_transfer_PW2RS_150          2315 15.9  112.603  115.899  174.726  178.102
 qs_ot_get_derivative_taylor       2049 14.0    0.040    0.055  161.490  166.318
 vdW_energy                        2284 13.9  156.739  164.484  156.739  164.484
 cube_transpose_2                 75409 17.8   21.694   22.917   99.648  146.166
 rs_pw_transfer_RS2PW_50           2285 13.0   33.504   45.842   98.421  141.411
 multiply_cannon_metrocomm1      660928 16.9    1.213    1.378   92.342  141.076
 xc_pw_derive                     13704 14.9    0.099    0.114  124.980  134.376
 init_scf_loop                       92  8.0    0.003    0.004  130.970  130.990
 xc_rho_set_and_dset_create        2284 13.9    3.672    4.142  115.877  118.913
 rs_pw_transfer_PW2RS_50           2284 15.9   27.888   39.549  100.769  111.239
 qs_ot_get_p                       2345 11.9    0.013    0.021  103.984  108.586
 multiply_cannon_metrocomm3      660928 16.9    1.090    1.172   28.856   92.411
 make_m2s                         82616 14.9    0.961    1.137   83.684   90.347
 xc_pw_divergence                  2284 13.9    0.049    0.063   81.073   88.296
 build_core_hamiltonian_matrix_      31  6.0    0.001    0.001   80.069   88.114
 mp_sum_l                        197125 15.0   54.393   87.115   54.393   87.115
 -------------------------------------------------------------------------------

 The number of warnings for this run is : 1
 
 -------------------------------------------------------------------------------
  **** **** ******  **  PROGRAM ENDED AT                 2023-04-19 15:35:33.981
 ***** ** ***  *** **   PROGRAM RAN ON                                 nid001189
 **    ****   ******    PROGRAM RAN BY                                  dpassero
 ***** **    ** ** **   PROGRAM PROCESS ID                                144145
  **** **  *******  **  PROGRAM STOPPED IN /scratch/e1000/dpassero/MMM_2023/jbac
                                           hmann/methane/full
