     185
 i =        1, E =    -21718.8913986762
 Pt         0.0000000000        1.6003333000       10.0000000000
 Pt         2.7718585800        1.6003333000       10.0000000000
 Pt         5.5437171600        1.6003333000       10.0000000000
 Pt         8.3155757500        1.6003333000       10.0000000000
 Pt        11.0874343300        1.6003333000       10.0000000000
 Pt        13.8592929100        1.6003333000       10.0000000000
 Pt         1.3859292900        4.0008332500       10.0000000000
 Pt         4.1577878700        4.0008332500       10.0000000000
 Pt         6.9296464600        4.0008332500       10.0000000000
 Pt         9.7015050400        4.0008332500       10.0000000000
 Pt        12.4733636200        4.0008332500       10.0000000000
 Pt        15.2452222000        4.0008332500       10.0000000000
 Pt         2.7718585800        6.4013331900       10.0000000000
 Pt         5.5437171600        6.4013331900       10.0000000000
 Pt         8.3155757500        6.4013331900       10.0000000000
 Pt        11.0874343300        6.4013331900       10.0000000000
 Pt        13.8592929100        6.4013331900       10.0000000000
 Pt        16.6311514900        6.4013331900       10.0000000000
 Pt         4.1577878700        8.8018331400       10.0000000000
 Pt         6.9296464600        8.8018331400       10.0000000000
 Pt         9.7015050400        8.8018331400       10.0000000000
 Pt        12.4733636200        8.8018331400       10.0000000000
 Pt        15.2452222000        8.8018331400       10.0000000000
 Pt        18.0170807800        8.8018331400       10.0000000000
 Pt         5.5437171600       11.2023330900       10.0000000000
 Pt         8.3155757500       11.2023330900       10.0000000000
 Pt        11.0874343300       11.2023330900       10.0000000000
 Pt        13.8592929100       11.2023330900       10.0000000000
 Pt        16.6311514900       11.2023330900       10.0000000000
 Pt        19.4030100800       11.2023330900       10.0000000000
 Pt         6.9296464600       13.6028330400       10.0000000000
 Pt         9.7015050400       13.6028330400       10.0000000000
 Pt        12.4733636200       13.6028330400       10.0000000000
 Pt        15.2452222000       13.6028330400       10.0000000000
 Pt        18.0170807800       13.6028330400       10.0000000000
 Pt        20.7889393700       13.6028330400       10.0000000000
 Pt         0.0000000000        0.0000000000       12.2632130600
 Pt         2.7718585800        0.0000000000       12.2632130600
 Pt         5.5437171600        0.0000000000       12.2632130600
 Pt         8.3155757500        0.0000000000       12.2632130600
 Pt        11.0874343300        0.0000000000       12.2632130600
 Pt        13.8592929100        0.0000000000       12.2632130600
 Pt         1.3859292900        2.4004999500       12.2632130600
 Pt         4.1577878700        2.4004999500       12.2632130600
 Pt         6.9296464600        2.4004999500       12.2632130600
 Pt         9.7015050400        2.4004999500       12.2632130600
 Pt        12.4733636200        2.4004999500       12.2632130600
 Pt        15.2452222000        2.4004999500       12.2632130600
 Pt         2.7718585800        4.8009999000       12.2632130600
 Pt         5.5437171600        4.8009999000       12.2632130600
 Pt         8.3155757500        4.8009999000       12.2632130600
 Pt        11.0874343300        4.8009999000       12.2632130600
 Pt        13.8592929100        4.8009999000       12.2632130600
 Pt        16.6311514900        4.8009999000       12.2632130600
 Pt         4.1577878700        7.2014998400       12.2632130600
 Pt         6.9296464600        7.2014998400       12.2632130600
 Pt         9.7015050400        7.2014998400       12.2632130600
 Pt        12.4733636200        7.2014998400       12.2632130600
 Pt        15.2452222000        7.2014998400       12.2632130600
 Pt        18.0170807800        7.2014998400       12.2632130600
 Pt         5.5437171600        9.6019997900       12.2632130600
 Pt         8.3155757500        9.6019997900       12.2632130600
 Pt        11.0874343300        9.6019997900       12.2632130600
 Pt        13.8592929100        9.6019997900       12.2632130600
 Pt        16.6311514900        9.6019997900       12.2632130600
 Pt        19.4030100800        9.6019997900       12.2632130600
 Pt         6.9296464600       12.0024997400       12.2632130600
 Pt         9.7015050400       12.0024997400       12.2632130600
 Pt        12.4733636200       12.0024997400       12.2632130600
 Pt        15.2452222000       12.0024997400       12.2632130600
 Pt        18.0170807800       12.0024997400       12.2632130600
 Pt        20.7889393700       12.0024997400       12.2632130600
 Pt         1.3859292900        0.8001666500       14.5264261100
 Pt         4.1577878700        0.8001666500       14.5264261100
 Pt         6.9296464600        0.8001666500       14.5264261100
 Pt         9.7015050400        0.8001666500       14.5264261100
 Pt        12.4733636200        0.8001666500       14.5264261100
 Pt        15.2452222000        0.8001666500       14.5264261100
 Pt         2.7718585800        3.2006666000       14.5264261100
 Pt         5.5437171600        3.2006666000       14.5264261100
 Pt         8.3155757500        3.2006666000       14.5264261100
 Pt        11.0874343300        3.2006666000       14.5264261100
 Pt        13.8592929100        3.2006666000       14.5264261100
 Pt        16.6311514900        3.2006666000       14.5264261100
 Pt         4.1577878700        5.6011665500       14.5264261100
 Pt         6.9296464600        5.6011665500       14.5264261100
 Pt         9.7015050400        5.6011665500       14.5264261100
 Pt        12.4733636200        5.6011665500       14.5264261100
 Pt        15.2452222000        5.6011665500       14.5264261100
 Pt        18.0170807800        5.6011665500       14.5264261100
 Pt         5.5437171600        8.0016664900       14.5264261100
 Pt         8.3155757500        8.0016664900       14.5264261100
 Pt        11.0874343300        8.0016664900       14.5264261100
 Pt        13.8592929100        8.0016664900       14.5264261100
 Pt        16.6311514900        8.0016664900       14.5264261100
 Pt        19.4030100800        8.0016664900       14.5264261100
 Pt         6.9296464600       10.4021664400       14.5264261100
 Pt         9.7015050400       10.4021664400       14.5264261100
 Pt        12.4733636200       10.4021664400       14.5264261100
 Pt        15.2452222000       10.4021664400       14.5264261100
 Pt        18.0170807800       10.4021664400       14.5264261100
 Pt        20.7889393700       10.4021664400       14.5264261100
 Pt         8.3155757500       12.8026663900       14.5264261100
 Pt        11.0874343300       12.8026663900       14.5264261100
 Pt        13.8592929100       12.8026663900       14.5264261100
 Pt        16.6311514900       12.8026663900       14.5264261100
 Pt        19.4030100800       12.8026663900       14.5264261100
 Pt        22.1748686600       12.8026663900       14.5264261100
 Pt         0.0000000000        1.6003333000       16.7896391700
 Pt         2.7718585800        1.6003333000       16.7896391700
 Pt         5.5437171600        1.6003333000       16.7896391700
 Pt         8.3155757500        1.6003333000       16.7896391700
 Pt        11.0874343300        1.6003333000       16.7896391700
 Pt        13.8592929100        1.6003333000       16.7896391700
 Pt         1.3859292900        4.0008332500       16.7896391700
 Pt         4.1577878700        4.0008332500       16.7896391700
 Pt         6.9296464600        4.0008332500       16.7896391700
 Pt         9.7015050400        4.0008332500       16.7896391700
 Pt        12.4733636200        4.0008332500       16.7896391700
 Pt        15.2452222000        4.0008332500       16.7896391700
 Pt         2.7718585800        6.4013331900       16.7896391700
 Pt         5.5437171600        6.4013331900       16.7896391700
 Pt         8.3155757500        6.4013331900       16.7896391700
 Pt        11.0874343300        6.4013331900       16.7896391700
 Pt        13.8592929100        6.4013331900       16.7896391700
 Pt        16.6311514900        6.4013331900       16.7896391700
 Pt         4.1577878700        8.8018331400       16.7896391700
 Pt         6.9296464600        8.8018331400       16.7896391700
 Pt         9.7015050400        8.8018331400       16.7896391700
 Pt        12.4733636200        8.8018331400       16.7896391700
 Pt        15.2452222000        8.8018331400       16.7896391700
 Pt        18.0170807800        8.8018331400       16.7896391700
 Pt         5.5437171600       11.2023330900       16.7896391700
 Pt         8.3155757500       11.2023330900       16.7896391700
 Pt        11.0874343300       11.2023330900       16.7896391700
 Pt        13.8592929100       11.2023330900       16.7896391700
 Pt        16.6311514900       11.2023330900       16.7896391700
 Pt        19.4030100800       11.2023330900       16.7896391700
 Pt         6.9296464600       13.6028330400       16.7896391700
 Pt         9.7015050400       13.6028330400       16.7896391700
 Pt        12.4733636200       13.6028330400       16.7896391700
 Pt        15.2452222000       13.6028330400       16.7896391700
 Pt        18.0170807800       13.6028330400       16.7896391700
 Pt        20.7889393700       13.6028330400       16.7896391700
 Pt         0.0017428692       -0.0007361596       19.0865087888
 Pt         2.7789524254       -0.0006185593       19.0854823271
 Pt         5.5521283245        0.0008818176       19.0849561003
 Pt         8.3175263093        0.0015243123       19.0863468970
 Pt        11.0784880177        0.0009789043       19.0855466484
 Pt        13.8526209987        0.0006948177       19.0862747689
 Pt         1.3893416983        2.4055290970       19.0852702374
 Pt         4.1628542565        2.4039612597       19.0868361722
 Pt         6.9311159158        2.3945729903       19.0863205427
 Pt         9.6991564224        2.3922912796       19.0874460287
 Pt        12.4685997592        2.4015292460       19.0850511697
 Pt        15.2416277654        2.4069692422       19.0859370670
 Pt         2.7787481477        4.8077922660       19.0855454225
 Pt         5.5396156521        4.8049941897       19.0860223024
 Pt         8.3086610997        4.7902778754       19.0789802484
 Pt        11.1015611514        4.7843562801       19.0712139334
 Pt        13.8547060302        4.8082519487       19.0869518591
 Pt        16.6303393089        4.8075458736       19.0846181911
 Pt         4.1587665535        7.2012476258       19.0864736468
 Pt         6.9110366962        7.2033185268       19.0821220410
 Pt         9.6996084005        7.2096570506       19.0502476102
 Pt        12.4941176874        7.2062223937       19.0741488890
 Pt        15.2400754246        7.1988115810       19.0858955375
 Pt        18.0219121528        7.2010500780       19.0834449245
 Pt         5.5374506181        9.5942334633       19.0881459234
 Pt         8.3077351287        9.6079600649       19.0800834862
 Pt        11.0993701557        9.6048286461       19.0804703571
 Pt        13.8587120479        9.5994180979       19.0874688458
 Pt        16.6304151743        9.6019046836       19.0853485672
 Pt        19.4082222681        9.5976346772       19.0853062348
 Pt         6.9274221789       11.9951476648       19.0858098878
 Pt         9.7051383869       11.9976414377       19.0850104413
 Pt        12.4778697266       11.9991759436       19.0855455389
 Pt        15.2470676403       12.0075318758       19.0868051007
 Pt        18.0143115289       12.0093534448       19.0864867646
 Pt        20.7832485338       11.9991598544       19.0843790859
  C        10.0037732250        6.9929036987       21.3247847938
  H        10.6356675521        7.6429281431       21.9241984464
  H         9.3565832601        6.3625722098       21.9279952229
  H        10.6520323861        6.3491967386       20.7211217723
  H         9.3487956964        7.6536373981       20.7266519409
     185
 i =        2, E =    -21718.9094646479
 Pt         0.0000000000        1.6003333000       10.0000000000
 Pt         2.7718585800        1.6003333000       10.0000000000
 Pt         5.5437171600        1.6003333000       10.0000000000
 Pt         8.3155757500        1.6003333000       10.0000000000
 Pt        11.0874343300        1.6003333000       10.0000000000
 Pt        13.8592929100        1.6003333000       10.0000000000
 Pt         1.3859292900        4.0008332500       10.0000000000
 Pt         4.1577878700        4.0008332500       10.0000000000
 Pt         6.9296464600        4.0008332500       10.0000000000
 Pt         9.7015050400        4.0008332500       10.0000000000
 Pt        12.4733636200        4.0008332500       10.0000000000
 Pt        15.2452222000        4.0008332500       10.0000000000
 Pt         2.7718585800        6.4013331900       10.0000000000
 Pt         5.5437171600        6.4013331900       10.0000000000
 Pt         8.3155757500        6.4013331900       10.0000000000
 Pt        11.0874343300        6.4013331900       10.0000000000
 Pt        13.8592929100        6.4013331900       10.0000000000
 Pt        16.6311514900        6.4013331900       10.0000000000
 Pt         4.1577878700        8.8018331400       10.0000000000
 Pt         6.9296464600        8.8018331400       10.0000000000
 Pt         9.7015050400        8.8018331400       10.0000000000
 Pt        12.4733636200        8.8018331400       10.0000000000
 Pt        15.2452222000        8.8018331400       10.0000000000
 Pt        18.0170807800        8.8018331400       10.0000000000
 Pt         5.5437171600       11.2023330900       10.0000000000
 Pt         8.3155757500       11.2023330900       10.0000000000
 Pt        11.0874343300       11.2023330900       10.0000000000
 Pt        13.8592929100       11.2023330900       10.0000000000
 Pt        16.6311514900       11.2023330900       10.0000000000
 Pt        19.4030100800       11.2023330900       10.0000000000
 Pt         6.9296464600       13.6028330400       10.0000000000
 Pt         9.7015050400       13.6028330400       10.0000000000
 Pt        12.4733636200       13.6028330400       10.0000000000
 Pt        15.2452222000       13.6028330400       10.0000000000
 Pt        18.0170807800       13.6028330400       10.0000000000
 Pt        20.7889393700       13.6028330400       10.0000000000
 Pt         0.0000000000        0.0000000000       12.2632130600
 Pt         2.7718585800        0.0000000000       12.2632130600
 Pt         5.5437171600        0.0000000000       12.2632130600
 Pt         8.3155757500        0.0000000000       12.2632130600
 Pt        11.0874343300        0.0000000000       12.2632130600
 Pt        13.8592929100        0.0000000000       12.2632130600
 Pt         1.3859292900        2.4004999500       12.2632130600
 Pt         4.1577878700        2.4004999500       12.2632130600
 Pt         6.9296464600        2.4004999500       12.2632130600
 Pt         9.7015050400        2.4004999500       12.2632130600
 Pt        12.4733636200        2.4004999500       12.2632130600
 Pt        15.2452222000        2.4004999500       12.2632130600
 Pt         2.7718585800        4.8009999000       12.2632130600
 Pt         5.5437171600        4.8009999000       12.2632130600
 Pt         8.3155757500        4.8009999000       12.2632130600
 Pt        11.0874343300        4.8009999000       12.2632130600
 Pt        13.8592929100        4.8009999000       12.2632130600
 Pt        16.6311514900        4.8009999000       12.2632130600
 Pt         4.1577878700        7.2014998400       12.2632130600
 Pt         6.9296464600        7.2014998400       12.2632130600
 Pt         9.7015050400        7.2014998400       12.2632130600
 Pt        12.4733636200        7.2014998400       12.2632130600
 Pt        15.2452222000        7.2014998400       12.2632130600
 Pt        18.0170807800        7.2014998400       12.2632130600
 Pt         5.5437171600        9.6019997900       12.2632130600
 Pt         8.3155757500        9.6019997900       12.2632130600
 Pt        11.0874343300        9.6019997900       12.2632130600
 Pt        13.8592929100        9.6019997900       12.2632130600
 Pt        16.6311514900        9.6019997900       12.2632130600
 Pt        19.4030100800        9.6019997900       12.2632130600
 Pt         6.9296464600       12.0024997400       12.2632130600
 Pt         9.7015050400       12.0024997400       12.2632130600
 Pt        12.4733636200       12.0024997400       12.2632130600
 Pt        15.2452222000       12.0024997400       12.2632130600
 Pt        18.0170807800       12.0024997400       12.2632130600
 Pt        20.7889393700       12.0024997400       12.2632130600
 Pt         1.3859292900        0.8001666500       14.5264261100
 Pt         4.1577878700        0.8001666500       14.5264261100
 Pt         6.9296464600        0.8001666500       14.5264261100
 Pt         9.7015050400        0.8001666500       14.5264261100
 Pt        12.4733636200        0.8001666500       14.5264261100
 Pt        15.2452222000        0.8001666500       14.5264261100
 Pt         2.7718585800        3.2006666000       14.5264261100
 Pt         5.5437171600        3.2006666000       14.5264261100
 Pt         8.3155757500        3.2006666000       14.5264261100
 Pt        11.0874343300        3.2006666000       14.5264261100
 Pt        13.8592929100        3.2006666000       14.5264261100
 Pt        16.6311514900        3.2006666000       14.5264261100
 Pt         4.1577878700        5.6011665500       14.5264261100
 Pt         6.9296464600        5.6011665500       14.5264261100
 Pt         9.7015050400        5.6011665500       14.5264261100
 Pt        12.4733636200        5.6011665500       14.5264261100
 Pt        15.2452222000        5.6011665500       14.5264261100
 Pt        18.0170807800        5.6011665500       14.5264261100
 Pt         5.5437171600        8.0016664900       14.5264261100
 Pt         8.3155757500        8.0016664900       14.5264261100
 Pt        11.0874343300        8.0016664900       14.5264261100
 Pt        13.8592929100        8.0016664900       14.5264261100
 Pt        16.6311514900        8.0016664900       14.5264261100
 Pt        19.4030100800        8.0016664900       14.5264261100
 Pt         6.9296464600       10.4021664400       14.5264261100
 Pt         9.7015050400       10.4021664400       14.5264261100
 Pt        12.4733636200       10.4021664400       14.5264261100
 Pt        15.2452222000       10.4021664400       14.5264261100
 Pt        18.0170807800       10.4021664400       14.5264261100
 Pt        20.7889393700       10.4021664400       14.5264261100
 Pt         8.3155757500       12.8026663900       14.5264261100
 Pt        11.0874343300       12.8026663900       14.5264261100
 Pt        13.8592929100       12.8026663900       14.5264261100
 Pt        16.6311514900       12.8026663900       14.5264261100
 Pt        19.4030100800       12.8026663900       14.5264261100
 Pt        22.1748686600       12.8026663900       14.5264261100
 Pt         0.0000000000        1.6003333000       16.7896391700
 Pt         2.7718585800        1.6003333000       16.7896391700
 Pt         5.5437171600        1.6003333000       16.7896391700
 Pt         8.3155757500        1.6003333000       16.7896391700
 Pt        11.0874343300        1.6003333000       16.7896391700
 Pt        13.8592929100        1.6003333000       16.7896391700
 Pt         1.3859292900        4.0008332500       16.7896391700
 Pt         4.1577878700        4.0008332500       16.7896391700
 Pt         6.9296464600        4.0008332500       16.7896391700
 Pt         9.7015050400        4.0008332500       16.7896391700
 Pt        12.4733636200        4.0008332500       16.7896391700
 Pt        15.2452222000        4.0008332500       16.7896391700
 Pt         2.7718585800        6.4013331900       16.7896391700
 Pt         5.5437171600        6.4013331900       16.7896391700
 Pt         8.3155757500        6.4013331900       16.7896391700
 Pt        11.0874343300        6.4013331900       16.7896391700
 Pt        13.8592929100        6.4013331900       16.7896391700
 Pt        16.6311514900        6.4013331900       16.7896391700
 Pt         4.1577878700        8.8018331400       16.7896391700
 Pt         6.9296464600        8.8018331400       16.7896391700
 Pt         9.7015050400        8.8018331400       16.7896391700
 Pt        12.4733636200        8.8018331400       16.7896391700
 Pt        15.2452222000        8.8018331400       16.7896391700
 Pt        18.0170807800        8.8018331400       16.7896391700
 Pt         5.5437171600       11.2023330900       16.7896391700
 Pt         8.3155757500       11.2023330900       16.7896391700
 Pt        11.0874343300       11.2023330900       16.7896391700
 Pt        13.8592929100       11.2023330900       16.7896391700
 Pt        16.6311514900       11.2023330900       16.7896391700
 Pt        19.4030100800       11.2023330900       16.7896391700
 Pt         6.9296464600       13.6028330400       16.7896391700
 Pt         9.7015050400       13.6028330400       16.7896391700
 Pt        12.4733636200       13.6028330400       16.7896391700
 Pt        15.2452222000       13.6028330400       16.7896391700
 Pt        18.0170807800       13.6028330400       16.7896391700
 Pt        20.7889393700       13.6028330400       16.7896391700
 Pt         0.0013342974        0.0003173709       19.1394265096
 Pt         2.7697142747       -0.0000111929       19.1247010382
 Pt         5.5440981074        0.0011047718       19.1082501584
 Pt         8.3186938779        0.0014728937       19.1090258202
 Pt        11.0867830235       -0.0000361609       19.1090736901
 Pt        13.8631256580        0.0002006024       19.1256137968
 Pt         1.3844010065        2.3971209439       19.1255175655
 Pt         4.1549722903        2.3994700006       19.1151135565
 Pt         6.9274786002        2.3970318259       19.1108399415
 Pt         9.7018926060        2.3931991372       19.1120172330
 Pt        12.4764590571        2.3955956990       19.1144347431
 Pt        15.2475201716        2.3981190971       19.1249651062
 Pt         2.7752953195        4.8003893299       19.1088526914
 Pt         5.5403275814        4.7999492497       19.1108522607
 Pt         8.3030200426        4.7828122539       19.1007436366
 Pt        11.0991811908        4.7725435783       19.0993864884
 Pt        13.8600085416        4.7995758367       19.1117111195
 Pt        16.6312182641        4.8005189755       19.1117984523
 Pt         4.1577752588        7.2013724623       19.1091393369
 Pt         6.9078101807        7.2021119802       19.1022635188
 Pt         9.6974323151        7.2077431173       19.0514361109
 Pt        12.5056021934        7.2070199717       19.0955853426
 Pt        15.2471197746        7.1974690697       19.1104036276
 Pt        18.0178025052        7.2019232166       19.1058425148
 Pt         5.5387147964        9.6023888140       19.1131131651
 Pt         8.3028719455        9.6185874404       19.1172514689
 Pt        11.1005180130        9.6164910906       19.1036061226
 Pt        13.8647028170        9.6052404441       19.1122819983
 Pt        16.6310933107        9.6024379456       19.1092431418
 Pt        19.4062981178        9.6022278996       19.1088151890
 Pt         6.9316432159       12.0040296766       19.1246984169
 Pt         9.7004705582       12.0070172806       19.1256095451
 Pt        12.4717452218       12.0039391780       19.1140491858
 Pt        15.2451138693       12.0040131515       19.1111311620
 Pt        18.0158396645       12.0060081017       19.1101121920
 Pt        20.7882120089       12.0027589875       19.1114923306
  C        10.0038374554        6.9886964357       21.3469604027
  H        10.6390965870        7.6512062037       21.9261686527
  H         9.3467676672        6.3567154035       21.9333863575
  H        10.6657635547        6.3356818776       20.7610798352
  H         9.3341750645        7.6690622162       20.7652304429
     185
 i =        3, E =    -21718.9159764755
 Pt         0.0000000000        1.6003333000       10.0000000000
 Pt         2.7718585800        1.6003333000       10.0000000000
 Pt         5.5437171600        1.6003333000       10.0000000000
 Pt         8.3155757500        1.6003333000       10.0000000000
 Pt        11.0874343300        1.6003333000       10.0000000000
 Pt        13.8592929100        1.6003333000       10.0000000000
 Pt         1.3859292900        4.0008332500       10.0000000000
 Pt         4.1577878700        4.0008332500       10.0000000000
 Pt         6.9296464600        4.0008332500       10.0000000000
 Pt         9.7015050400        4.0008332500       10.0000000000
 Pt        12.4733636200        4.0008332500       10.0000000000
 Pt        15.2452222000        4.0008332500       10.0000000000
 Pt         2.7718585800        6.4013331900       10.0000000000
 Pt         5.5437171600        6.4013331900       10.0000000000
 Pt         8.3155757500        6.4013331900       10.0000000000
 Pt        11.0874343300        6.4013331900       10.0000000000
 Pt        13.8592929100        6.4013331900       10.0000000000
 Pt        16.6311514900        6.4013331900       10.0000000000
 Pt         4.1577878700        8.8018331400       10.0000000000
 Pt         6.9296464600        8.8018331400       10.0000000000
 Pt         9.7015050400        8.8018331400       10.0000000000
 Pt        12.4733636200        8.8018331400       10.0000000000
 Pt        15.2452222000        8.8018331400       10.0000000000
 Pt        18.0170807800        8.8018331400       10.0000000000
 Pt         5.5437171600       11.2023330900       10.0000000000
 Pt         8.3155757500       11.2023330900       10.0000000000
 Pt        11.0874343300       11.2023330900       10.0000000000
 Pt        13.8592929100       11.2023330900       10.0000000000
 Pt        16.6311514900       11.2023330900       10.0000000000
 Pt        19.4030100800       11.2023330900       10.0000000000
 Pt         6.9296464600       13.6028330400       10.0000000000
 Pt         9.7015050400       13.6028330400       10.0000000000
 Pt        12.4733636200       13.6028330400       10.0000000000
 Pt        15.2452222000       13.6028330400       10.0000000000
 Pt        18.0170807800       13.6028330400       10.0000000000
 Pt        20.7889393700       13.6028330400       10.0000000000
 Pt         0.0000000000        0.0000000000       12.2632130600
 Pt         2.7718585800        0.0000000000       12.2632130600
 Pt         5.5437171600        0.0000000000       12.2632130600
 Pt         8.3155757500        0.0000000000       12.2632130600
 Pt        11.0874343300        0.0000000000       12.2632130600
 Pt        13.8592929100        0.0000000000       12.2632130600
 Pt         1.3859292900        2.4004999500       12.2632130600
 Pt         4.1577878700        2.4004999500       12.2632130600
 Pt         6.9296464600        2.4004999500       12.2632130600
 Pt         9.7015050400        2.4004999500       12.2632130600
 Pt        12.4733636200        2.4004999500       12.2632130600
 Pt        15.2452222000        2.4004999500       12.2632130600
 Pt         2.7718585800        4.8009999000       12.2632130600
 Pt         5.5437171600        4.8009999000       12.2632130600
 Pt         8.3155757500        4.8009999000       12.2632130600
 Pt        11.0874343300        4.8009999000       12.2632130600
 Pt        13.8592929100        4.8009999000       12.2632130600
 Pt        16.6311514900        4.8009999000       12.2632130600
 Pt         4.1577878700        7.2014998400       12.2632130600
 Pt         6.9296464600        7.2014998400       12.2632130600
 Pt         9.7015050400        7.2014998400       12.2632130600
 Pt        12.4733636200        7.2014998400       12.2632130600
 Pt        15.2452222000        7.2014998400       12.2632130600
 Pt        18.0170807800        7.2014998400       12.2632130600
 Pt         5.5437171600        9.6019997900       12.2632130600
 Pt         8.3155757500        9.6019997900       12.2632130600
 Pt        11.0874343300        9.6019997900       12.2632130600
 Pt        13.8592929100        9.6019997900       12.2632130600
 Pt        16.6311514900        9.6019997900       12.2632130600
 Pt        19.4030100800        9.6019997900       12.2632130600
 Pt         6.9296464600       12.0024997400       12.2632130600
 Pt         9.7015050400       12.0024997400       12.2632130600
 Pt        12.4733636200       12.0024997400       12.2632130600
 Pt        15.2452222000       12.0024997400       12.2632130600
 Pt        18.0170807800       12.0024997400       12.2632130600
 Pt        20.7889393700       12.0024997400       12.2632130600
 Pt         1.3859292900        0.8001666500       14.5264261100
 Pt         4.1577878700        0.8001666500       14.5264261100
 Pt         6.9296464600        0.8001666500       14.5264261100
 Pt         9.7015050400        0.8001666500       14.5264261100
 Pt        12.4733636200        0.8001666500       14.5264261100
 Pt        15.2452222000        0.8001666500       14.5264261100
 Pt         2.7718585800        3.2006666000       14.5264261100
 Pt         5.5437171600        3.2006666000       14.5264261100
 Pt         8.3155757500        3.2006666000       14.5264261100
 Pt        11.0874343300        3.2006666000       14.5264261100
 Pt        13.8592929100        3.2006666000       14.5264261100
 Pt        16.6311514900        3.2006666000       14.5264261100
 Pt         4.1577878700        5.6011665500       14.5264261100
 Pt         6.9296464600        5.6011665500       14.5264261100
 Pt         9.7015050400        5.6011665500       14.5264261100
 Pt        12.4733636200        5.6011665500       14.5264261100
 Pt        15.2452222000        5.6011665500       14.5264261100