 DBCSR| CPU Multiplication driver                                           XSMM
 DBCSR| Multrec recursion limit                                              512
 DBCSR| Multiplication stack size                                           1000
 DBCSR| Maximum elements for images                                    UNLIMITED
 DBCSR| Multiplicative factor virtual images                                   1
 DBCSR| Use multiplication densification                                       T
 DBCSR| Multiplication size stacks                                             3
 DBCSR| Use memory pool for CPU allocation                                     F
 DBCSR| Number of 3D layers                                               SINGLE
 DBCSR| Use MPI memory allocation                                              F
 DBCSR| Use RMA algorithm                                                      F
 DBCSR| Use Communication thread                                               T
 DBCSR| Communication thread load                                             87
 DBCSR| MPI: My node id                                                        0
 DBCSR| MPI: Number of nodes                                                 256
 DBCSR| OMP: Current number of threads                                         1
 DBCSR| OMP: Max number of threads                                             1
 DBCSR| Split modifier for TAS multiplication algorithm                  1.0E+00


  **** **** ******  **  PROGRAM STARTED AT               2023-04-19 15:42:02.851
 ***** ** ***  *** **   PROGRAM STARTED ON                             nid001050
 **    ****   ******    PROGRAM STARTED BY                              dpassero
 ***** **    ** ** **   PROGRAM PROCESS ID                                 53053
  **** **  *******  **  PROGRAM STARTED IN /scratch/e1000/dpassero/MMM_2023/jbac
                                           hmann/grimme_d3/benzene/full

 CP2K| version string:                 CP2K version 2022.1 (Development Version)
 CP2K| source code revision number:                                  git:4ddb46c
 CP2K| cp2kflags: omp libint fftw3 libxc elpa parallel mpi3 scalapack xsmm max_c
 CP2K|            ontr=4 plumed2 spglib
 CP2K| is freely available from                            https://www.cp2k.org/
 CP2K| Program compiled at                      Wed 14 Sep 2022 12:18:41 PM CEST
 CP2K| Program compiled on                                             nid001080
 CP2K| Program compiled for                                 Eiger-gfortran_May22
 CP2K| Data directory path         /users/mmi/DEV/CP2K/trunk_new/eiger/cp2k/data
 CP2K| Input file name        /scratch/e1000/dpassero/MMM_2023/jbachmann/grimme_

 GLOBAL| Force Environment number                                              1
 GLOBAL| Basis set file name                                        BASIS_MOLOPT
 GLOBAL| Potential file name                                           POTENTIAL
 GLOBAL| MM Potential file name                                     MM_POTENTIAL
 GLOBAL| Coordinate file name                                  benzene_on_pt.xyz
 GLOBAL| Method name                                                        CP2K
 GLOBAL| Project name                                              benzene_on_pt
 GLOBAL| Run type                                                        GEO_OPT
 GLOBAL| FFT library                                                       FFTW3
 GLOBAL| Diagonalization library                                            ELPA
 GLOBAL| DGEMM library                                                      BLAS
 GLOBAL| Minimum number of eigenvectors for ELPA usage                        16
 GLOBAL| Orthonormality check for eigenvectors                          DISABLED
 GLOBAL| Matrix multiplication library                                 ScaLAPACK
 GLOBAL| All-to-all communication in single precision                          F
 GLOBAL| FFTs using library dependent lengths                                  T
 GLOBAL| Grid backend                                                       AUTO
 GLOBAL| Global print level                                                  LOW
 GLOBAL| MPI I/O enabled                                                       T
 GLOBAL| Total number of message passing processes                           256
 GLOBAL| Number of threads for this process                                    1
 GLOBAL| This output is from process                                           0
 GLOBAL| Stack size for threads created by OpenMP (OMP_STACKSIZE)           100M
 GLOBAL| CPU model name                          AMD EPYC 7742 64-Core Processor
 GLOBAL| CPUID                                                              1002

 MEMORY| system memory details [Kb]
 MEMORY|                        rank 0           min           max       average
 MEMORY| MemTotal            263506204     263506204     263506204     263506204
 MEMORY| MemFree             226437924     226209912     226437924     226323918
 MEMORY| Buffers                444276         97076        444276        270676
 MEMORY| Cached                8468916       8468916       8522712       8495815
 MEMORY| Slab                  8418176       7582636       8418176       8000406
 MEMORY| SReclaimable           629008        430564        629008        529786
 MEMORY| MemLikelyFree       235980124     235260264     235980128     235620195


 GENERATE|  Preliminary Number of Bonds generated:                             0
 GENERATE|  Achieved consistency in connectivity generation.

 *******************************************************************************
 *******************************************************************************
 **                                                                           **
 **     #####                         ##              ##                      **
 **    ##   ##            ##          ##              ##                      **
 **   ##     ##                       ##            ######                    **
 **   ##     ##  ##   ##  ##   #####  ##  ##   ####   ##    #####    #####    **
 **   ##     ##  ##   ##  ##  ##      ## ##   ##      ##   ##   ##  ##   ##   **
 **   ##  ## ##  ##   ##  ##  ##      ####     ###    ##   ######   ######    **
 **    ##  ###   ##   ##  ##  ##      ## ##      ##   ##   ##       ##        **
 **     #######   #####   ##   #####  ##  ##  ####    ##    #####   ##        **
 **           ##                                                    ##        **
 **                                                                           **
 **                                                ... make the atoms dance   **
 **                                                                           **
 **            Copyright (C) by CP2K developers group (2000-2022)             **
 **                      J. Chem. Phys. 152, 194103 (2020)                    **
 **                                                                           **
 *******************************************************************************


 TOTAL NUMBERS AND MAXIMUM NUMBERS

  Total number of            - Atomic kinds:                                   3
                             - Atoms:                                        192
                             - Shell sets:                                   192
                             - Shells:                                      1488
                             - Primitive Cartesian functions:               1164
                             - Cartesian basis functions:                   5694
                             - Spherical basis functions:                   4788

  Maximum angular momentum of- Orbital basis functions:                        3
                             - Local part of the GTH pseudopotential:          2
                             - Non-local part of the GTH pseudopotential:      5


 SCF PARAMETERS         Density guess:                                   RESTART
                        --------------------------------------------------------
                        max_scf:                                              30
                        max_scf_history:                                       0
                        max_diis:                                              4
                        --------------------------------------------------------
                        eps_scf:                                        1.00E-06
                        eps_scf_history:                                0.00E+00
                        eps_diis:                                       1.00E-01
                        eps_eigval:                                     1.00E-05
                        --------------------------------------------------------
                        level_shift [a.u.]:                             0.000000
                        --------------------------------------------------------
                        Outer loop SCF in use 
                        No variables optimised in outer loop
                        eps_scf                                         1.00E-06
                        max_scf                                               20
                        No outer loop optimization
                        step_size                                       5.00E-01

 BFGS| Use rational function optimization for step estimation:                NO
 BFGS| Use model Hessian for initial guess:                                  YES
 BFGS| Restart Hessian:                                                       NO
 BFGS| Trust radius:                                                       0.100

 *******************************************************************************
 ***                     STARTING GEOMETRY OPTIMIZATION                      ***
 ***                                   BFGS                                  ***
 *******************************************************************************

 Number of electrons:                                                       3270
 Number of occupied orbitals:                                               1635
 Number of molecular orbitals:                                              1635

 Number of orbital functions:                                               4788
 Number of independent orbital functions:                                   4788

 Extrapolation method: initial_guess


 SCF WAVEFUNCTION OPTIMIZATION

  ----------------------------------- OT ---------------------------------------
  Minimizer      : DIIS                : direct inversion
                                         in the iterative subspace
                                         using   7 DIIS vectors
                                         safer DIIS on
  Preconditioner : FULL_KINETIC        : inversion of T + eS
  Precond_solver : DEFAULT
  stepsize       :    0.15000000                  energy_gap     :    0.20000000
  eps_taylor     :   0.10000E-15                  max_taylor     :             4
  ----------------------------------- OT ---------------------------------------

  Step     Update method      Time    Convergence         Total energy    Change
  ------------------------------------------------------------------------------
     1 OT DIIS     0.15E+00    1.2     0.00053850    -21673.8169083310 -2.17E+04
     2 OT DIIS     0.15E+00    1.2     0.00031201    -21674.0650140883 -2.48E-01
     3 OT DIIS     0.15E+00    1.2     0.00023349    -21674.1757664198 -1.11E-01
     4 OT DIIS     0.15E+00    1.2     0.00019512    -21674.2292559571 -5.35E-02
     5 OT DIIS     0.15E+00    1.2     0.00014505    -21674.2642000124 -3.49E-02
     6 OT DIIS     0.15E+00    1.5     0.00011227    -21674.2915689421 -2.74E-02
     7 OT DIIS     0.15E+00    1.4     0.00009143    -21674.3068750868 -1.53E-02
     8 OT DIIS     0.15E+00    1.4     0.00007570    -21674.3255953190 -1.87E-02
     9 OT DIIS     0.15E+00    1.4     0.00006337    -21674.3375570163 -1.20E-02
    10 OT DIIS     0.15E+00    1.4     0.00005138    -21674.3489603421 -1.14E-02
    11 OT DIIS     0.15E+00    1.4     0.00004542    -21674.3546922274 -5.73E-03
    12 OT DIIS     0.15E+00    1.4     0.00004014    -21674.3602460074 -5.55E-03
    13 OT DIIS     0.15E+00    1.4     0.00003559    -21674.3648985291 -4.65E-03
    14 OT DIIS     0.15E+00    1.4     0.00003191    -21674.3689770809 -4.08E-03
    15 OT DIIS     0.15E+00    1.4     0.00002925    -21674.3716480828 -2.67E-03
    16 OT DIIS     0.15E+00    1.4     0.00002638    -21674.3741116879 -2.46E-03
    17 OT DIIS     0.15E+00    1.4     0.00002372    -21674.3761463437 -2.03E-03
    18 OT DIIS     0.15E+00    1.4     0.00002179    -21674.3778530569 -1.71E-03
    19 OT DIIS     0.15E+00    1.4     0.00002049    -21674.3792628960 -1.41E-03
    20 OT DIIS     0.15E+00    1.4     0.00001909    -21674.3805807628 -1.32E-03
    21 OT DIIS     0.15E+00    1.4     0.00001758    -21674.3819823751 -1.40E-03
    22 OT DIIS     0.15E+00    1.4     0.00001656    -21674.3830579223 -1.08E-03
    23 OT DIIS     0.15E+00    1.4     0.00001574    -21674.3839866398 -9.29E-04
    24 OT DIIS     0.15E+00    1.4     0.00001516    -21674.3847785634 -7.92E-04
    25 OT DIIS     0.15E+00    1.4     0.00001437    -21674.3856056347 -8.27E-04
    26 OT DIIS     0.15E+00    1.4     0.00001346    -21674.3864371562 -8.32E-04
    27 OT DIIS     0.15E+00    1.4     0.00001287    -21674.3871336405 -6.96E-04
    28 OT DIIS     0.15E+00    1.4     0.00001222    -21674.3878059483 -6.72E-04
    29 OT DIIS     0.15E+00    1.4     0.00001167    -21674.3884315812 -6.26E-04
    30 OT DIIS     0.15E+00    1.4     0.00001105    -21674.3890756214 -6.44E-04

  Leaving inner SCF loop after reaching    30 steps.


  Electronic density on regular grids:      -3269.9999999953        0.0000000047
  Core density on regular grids:             3269.9999999998       -0.0000000002
  Total charge density on r-space grids:        0.0000000045
  Total charge density g-space grids:           0.0000000045

  Overlap energy of the core charge distribution:               0.00000335738129
  Self energy of the core charge distribution:             -32992.00940381895634
  Core Hamiltonian energy:                                   7342.40513413586177
  Hartree energy:                                            6100.67870200193920
  Exchange-correlation energy:                              -2121.43972001930160
  Dispersion energy:                                           -4.02379127832631

  Total energy:                                            -21674.38907562140230

  outer SCF iter =    1 RMS gradient =   0.11E-04 energy =     -21674.3890756214

  ----------------------------------- OT ---------------------------------------
  Minimizer      : DIIS                : direct inversion
                                         in the iterative subspace
                                         using   7 DIIS vectors
                                         safer DIIS on
  Preconditioner : FULL_KINETIC        : inversion of T + eS
  Precond_solver : DEFAULT
  stepsize       :    0.15000000                  energy_gap     :    0.20000000
  eps_taylor     :   0.10000E-15                  max_taylor     :             4
  ----------------------------------- OT ---------------------------------------

  Step     Update method      Time    Convergence         Total energy    Change
  ------------------------------------------------------------------------------
     1 OT DIIS     0.15E+00    2.9     0.00001060    -21674.3896601273 -5.85E-04
     2 OT DIIS     0.15E+00    1.2     0.00001159    -21674.3897724587 -1.12E-04
     3 OT DIIS     0.15E+00    1.2     0.00000980    -21674.3898220941 -4.96E-05
     4 OT DIIS     0.15E+00    1.2     0.00000978    -21674.3900212213 -1.99E-04
     5 OT DIIS     0.15E+00    1.2     0.00000909    -21674.3905426139 -5.21E-04
     6 OT DIIS     0.15E+00    1.2     0.00000882    -21674.3907324644 -1.90E-04
     7 OT DIIS     0.15E+00    1.2     0.00000858    -21674.3913318158 -5.99E-04
     8 OT DIIS     0.15E+00    1.2     0.00000787    -21674.3922652447 -9.33E-04
     9 OT DIIS     0.15E+00    1.2     0.00000766    -21674.3927528562 -4.88E-04
    10 OT DIIS     0.15E+00    1.2     0.00000728    -21674.3932001136 -4.47E-04
    11 OT DIIS     0.15E+00    1.2     0.00000682    -21674.3942319785 -1.03E-03
    12 OT DIIS     0.15E+00    1.3     0.00000618    -21674.3948953795 -6.63E-04
    13 OT DIIS     0.15E+00    1.2     0.00000586    -21674.3951895457 -2.94E-04
    14 OT DIIS     0.15E+00    1.2     0.00000565    -21674.3953998430 -2.10E-04
    15 OT DIIS     0.15E+00    1.2     0.00000555    -21674.3956061688 -2.06E-04
    16 OT DIIS     0.15E+00    1.2     0.00000523    -21674.3958578275 -2.52E-04
    17 OT DIIS     0.15E+00    1.2     0.00000507    -21674.3959731314 -1.15E-04
    18 OT DIIS     0.15E+00    1.2     0.00000495    -21674.3960609894 -8.79E-05
    19 OT DIIS     0.15E+00    1.2     0.00000487    -21674.3961448336 -8.38E-05
    20 OT DIIS     0.15E+00    1.2     0.00000474    -21674.3962390802 -9.42E-05
    21 OT DIIS     0.15E+00    1.2     0.00000469    -21674.3963070291 -6.79E-05
    22 OT DIIS     0.15E+00    1.2     0.00000464    -21674.3963464674 -3.94E-05
    23 OT DIIS     0.15E+00    1.2     0.00000458    -21674.3963945039 -4.80E-05
    24 OT DIIS     0.15E+00    1.2     0.00000453    -21674.3964534678 -5.90E-05
    25 OT DIIS     0.15E+00    1.2     0.00000451    -21674.3964965477 -4.31E-05
    26 OT DIIS     0.15E+00    1.2     0.00000448    -21674.3965446883 -4.81E-05
    27 OT DIIS     0.15E+00    1.2     0.00000441    -21674.3966453850 -1.01E-04
    28 OT DIIS     0.15E+00    1.2     0.00000436    -21674.3967555882 -1.10E-04
    29 OT DIIS     0.15E+00    1.2     0.00000432    -21674.3968610152 -1.05E-04
    30 OT DIIS     0.15E+00    1.2     0.00000428    -21674.3969380858 -7.71E-05

  Leaving inner SCF loop after reaching    30 steps.


  Electronic density on regular grids:      -3269.9999999953        0.0000000047
  Core density on regular grids:             3269.9999999998       -0.0000000002
  Total charge density on r-space grids:        0.0000000045
  Total charge density g-space grids:           0.0000000045

  Overlap energy of the core charge distribution:               0.00000335738129
  Self energy of the core charge distribution:             -32992.00940381895634
  Core Hamiltonian energy:                                   7342.26707600545615
  Hartree energy:                                            6100.77186164652448
  Exchange-correlation energy:                              -2121.40268399790784
  Dispersion energy:                                           -4.02379127832631

  Total energy:                                            -21674.39693808582888

  outer SCF iter =    2 RMS gradient =   0.43E-05 energy =     -21674.3969380858

  ----------------------------------- OT ---------------------------------------
  Minimizer      : DIIS                : direct inversion
                                         in the iterative subspace
                                         using   7 DIIS vectors
                                         safer DIIS on
  Preconditioner : FULL_KINETIC        : inversion of T + eS
  Precond_solver : DEFAULT
  stepsize       :    0.15000000                  energy_gap     :    0.20000000
  eps_taylor     :   0.10000E-15                  max_taylor     :             4
  ----------------------------------- OT ---------------------------------------

  Step     Update method      Time    Convergence         Total energy    Change
  ------------------------------------------------------------------------------
     1 OT DIIS     0.15E+00    2.7     0.00000422    -21674.3970381704 -1.00E-04
     2 OT DIIS     0.15E+00    1.2     0.00000434    -21674.3970581770 -2.00E-05
     3 OT DIIS     0.15E+00    1.2     0.00000413    -21674.3970658675 -7.69E-06
     4 OT DIIS     0.15E+00    1.2     0.00000411    -21674.3971015296 -3.57E-05
     5 OT DIIS     0.15E+00    1.2     0.00000398    -21674.3972651672 -1.64E-04
     6 OT DIIS     0.15E+00    1.2     0.00000395    -21674.3973169720 -5.18E-05
     7 OT DIIS     0.15E+00    1.2     0.00000391    -21674.3975914192 -2.74E-04
     8 OT DIIS     0.15E+00    1.2     0.00000362    -21674.3980476317 -4.56E-04
     9 OT DIIS     0.15E+00    1.2     0.00000358    -21674.3982542586 -2.07E-04
    10 OT DIIS     0.15E+00    1.2     0.00000343    -21674.3984509469 -1.97E-04
    11 OT DIIS     0.15E+00    1.2     0.00000328    -21674.3988378298 -3.87E-04
    12 OT DIIS     0.15E+00    1.2     0.00000291    -21674.3993235777 -4.86E-04
    13 OT DIIS     0.15E+00    1.2     0.00000283    -21674.3994736189 -1.50E-04
    14 OT DIIS     0.15E+00    1.2     0.00000274    -21674.3995614828 -8.79E-05
    15 OT DIIS     0.15E+00    1.2     0.00000263    -21674.3996970672 -1.36E-04
    16 OT DIIS     0.15E+00    1.2     0.00000250    -21674.3997889112 -9.18E-05
    17 OT DIIS     0.15E+00    1.2     0.00000247    -21674.3998332606 -4.43E-05
    18 OT DIIS     0.15E+00    1.2     0.00000244    -21674.3998485906 -1.53E-05
    19 OT DIIS     0.15E+00    1.2     0.00000241    -21674.3998594824 -1.09E-05
    20 OT DIIS     0.15E+00    1.2     0.00000238    -21674.3998718630 -1.24E-05
    21 OT DIIS     0.15E+00    1.2     0.00000237    -21674.3998831102 -1.12E-05
    22 OT DIIS     0.15E+00    1.2     0.00000236    -21674.3998870709 -3.96E-06
    23 OT DIIS     0.15E+00    1.2     0.00000235    -21674.3999043521 -1.73E-05
    24 OT DIIS     0.15E+00    1.2     0.00000233    -21674.3999207791 -1.64E-05
    25 OT DIIS     0.15E+00    1.2     0.00000233    -21674.3999328433 -1.21E-05
    26 OT DIIS     0.15E+00    1.2     0.00000232    -21674.3999498427 -1.70E-05
    27 OT DIIS     0.15E+00    1.2     0.00000232    -21674.3999842206 -3.44E-05
    28 OT DIIS     0.15E+00    1.2     0.00000229    -21674.4000338223 -4.96E-05
    29 OT DIIS     0.15E+00    1.2     0.00000228    -21674.4000644467 -3.06E-05
    30 OT DIIS     0.15E+00    1.2     0.00000227    -21674.4000982717 -3.38E-05

  Leaving inner SCF loop after reaching    30 steps.


  Electronic density on regular grids:      -3269.9999999953        0.0000000047
  Core density on regular grids:             3269.9999999998       -0.0000000002
  Total charge density on r-space grids:        0.0000000045
  Total charge density g-space grids:           0.0000000045

  Overlap energy of the core charge distribution:               0.00000335738129
  Self energy of the core charge distribution:             -32992.00940381895634
  Core Hamiltonian energy:                                   7342.17464122917318
  Hartree energy:                                            6100.83556551508991
  Exchange-correlation energy:                              -2121.37711327604165
  Dispersion energy:                                           -4.02379127832631

  Total energy:                                            -21674.40009827167887

  outer SCF iter =    3 RMS gradient =   0.23E-05 energy =     -21674.4000982717

  ----------------------------------- OT ---------------------------------------
  Minimizer      : DIIS                : direct inversion
                                         in the iterative subspace
                                         using   7 DIIS vectors
                                         safer DIIS on
  Preconditioner : FULL_KINETIC        : inversion of T + eS
  Precond_solver : DEFAULT
  stepsize       :    0.15000000                  energy_gap     :    0.20000000
  eps_taylor     :   0.10000E-15                  max_taylor     :             4
  ----------------------------------- OT ---------------------------------------

  Step     Update method      Time    Convergence         Total energy    Change
  ------------------------------------------------------------------------------
     1 OT DIIS     0.15E+00    2.7     0.00000224    -21674.4001709965 -7.27E-05
     2 OT DIIS     0.15E+00    1.2     0.00000228    -21674.4001767504 -5.75E-06
     3 OT DIIS     0.15E+00    1.2     0.00000221    -21674.4001790389 -2.29E-06
     4 OT DIIS     0.15E+00    1.2     0.00000221    -21674.4001870792 -8.04E-06
     5 OT DIIS     0.15E+00    1.2     0.00000218    -21674.4002249802 -3.79E-05
     6 OT DIIS     0.15E+00    1.2     0.00000217    -21674.4002354920 -1.05E-05
     7 OT DIIS     0.15E+00    1.2     0.00000216    -21674.4002832648 -4.78E-05
     8 OT DIIS     0.15E+00    1.2     0.00000213    -21674.4003654187 -8.22E-05
     9 OT DIIS     0.15E+00    1.2     0.00000212    -21674.4004146450 -4.92E-05
    10 OT DIIS     0.15E+00    1.2     0.00000210    -21674.4004723227 -5.77E-05
    11 OT DIIS     0.15E+00    1.2     0.00000207    -21674.4006320238 -1.60E-04
    12 OT DIIS     0.15E+00    1.2     0.00000200    -21674.4008392655 -2.07E-04
    13 OT DIIS     0.15E+00    1.2     0.00000196    -21674.4009428559 -1.04E-04
    14 OT DIIS     0.15E+00    1.2     0.00000192    -21674.4010535219 -1.11E-04
    15 OT DIIS     0.15E+00    1.2     0.00000188    -21674.4012090845 -1.56E-04
    16 OT DIIS     0.15E+00    1.2     0.00000179    -21674.4014277079 -2.19E-04
    17 OT DIIS     0.15E+00    1.2     0.00000174    -21674.4015162590 -8.86E-05
    18 OT DIIS     0.15E+00    1.2     0.00000171    -21674.4015840799 -6.78E-05
    19 OT DIIS     0.15E+00    1.2     0.00000169    -21674.4016247356 -4.07E-05
    20 OT DIIS     0.15E+00    1.2     0.00000167    -21674.4016566109 -3.19E-05
    21 OT DIIS     0.15E+00    1.2     0.00000166    -21674.4016743932 -1.78E-05
    22 OT DIIS     0.15E+00    1.2     0.00000165    -21674.4016844168 -1.00E-05
    23 OT DIIS     0.15E+00    1.2     0.00000164    -21674.4016844462 -2.94E-08
    24 OT DIIS     0.15E+00    1.2     0.00000163    -21674.4016906156 -6.17E-06
    25 OT DIIS     0.15E+00    1.2     0.00000163    -21674.4016945708 -3.96E-06
    26 OT DIIS     0.15E+00    1.2     0.00000162    -21674.4017006837 -6.11E-06
    27 OT DIIS     0.15E+00    1.2     0.00000162    -21674.4017054427 -4.76E-06
    28 OT DIIS     0.15E+00    1.2     0.00000161    -21674.4017182030 -1.28E-05
    29 OT DIIS     0.15E+00    1.2     0.00000161    -21674.4017245859 -6.38E-06
    30 OT DIIS     0.15E+00    1.2     0.00000161    -21674.4017297761 -5.19E-06

  Leaving inner SCF loop after reaching    30 steps.


  Electronic density on regular grids:      -3269.9999999953        0.0000000047
  Core density on regular grids:             3269.9999999998       -0.0000000002
  Total charge density on r-space grids:        0.0000000045
  Total charge density g-space grids:           0.0000000045

  Overlap energy of the core charge distribution:               0.00000335738129
  Self energy of the core charge distribution:             -32992.00940381895634
  Core Hamiltonian energy:                                   7342.10342602642413
  Hartree energy:                                            6100.88580055072453
  Exchange-correlation energy:                              -2121.35776461336081
  Dispersion energy:                                           -4.02379127832631

  Total energy:                                            -21674.40172977611292

  outer SCF iter =    4 RMS gradient =   0.16E-05 energy =     -21674.4017297761

  ----------------------------------- OT ---------------------------------------
  Minimizer      : DIIS                : direct inversion
                                         in the iterative subspace
                                         using   7 DIIS vectors
                                         safer DIIS on
  Preconditioner : FULL_KINETIC        : inversion of T + eS
  Precond_solver : DEFAULT
  stepsize       :    0.15000000                  energy_gap     :    0.20000000
  eps_taylor     :   0.10000E-15                  max_taylor     :             4
  ----------------------------------- OT ---------------------------------------

  Step     Update method      Time    Convergence         Total energy    Change
  ------------------------------------------------------------------------------
     1 OT DIIS     0.15E+00    2.7     0.00000160    -21674.4017407431 -1.10E-05
     2 OT DIIS     0.15E+00    1.2     0.00000160    -21674.4017437329 -2.99E-06
     3 OT DIIS     0.15E+00    1.2     0.00000160    -21674.4017448916 -1.16E-06
     4 OT DIIS     0.15E+00    1.2     0.00000159    -21674.4017518413 -6.95E-06
     5 OT DIIS     0.15E+00    1.2     0.00000159    -21674.4017771529 -2.53E-05
     6 OT DIIS     0.15E+00    1.2     0.00000158    -21674.4017880660 -1.09E-05
     7 OT DIIS     0.15E+00    1.2     0.00000157    -21674.4018569613 -6.89E-05
     8 OT DIIS     0.15E+00    1.2     0.00000155    -21674.4019522538 -9.53E-05
     9 OT DIIS     0.15E+00    1.2     0.00000154    -21674.4020246297 -7.24E-05
    10 OT DIIS     0.15E+00    1.2     0.00000153    -21674.4020961567 -7.15E-05
    11 OT DIIS     0.15E+00    1.2     0.00000150    -21674.4022893502 -1.93E-04
    12 OT DIIS     0.15E+00    1.2     0.00000148    -21674.4023903610 -1.01E-04
    13 OT DIIS     0.15E+00    1.2     0.00000147    -21674.4024487509 -5.84E-05
    14 OT DIIS     0.15E+00    1.2     0.00000146    -21674.4024832564 -3.45E-05
    15 OT DIIS     0.15E+00    1.2     0.00000145    -21674.4025395235 -5.63E-05
    16 OT DIIS     0.15E+00    1.2     0.00000144    -21674.4025816285 -4.21E-05
    17 OT DIIS     0.15E+00    1.2     0.00000143    -21674.4026092805 -2.77E-05
    18 OT DIIS     0.15E+00    1.2     0.00000143    -21674.4026221636 -1.29E-05
    19 OT DIIS     0.15E+00    1.2     0.00000142    -21674.4026367150 -1.46E-05
    20 OT DIIS     0.15E+00    1.2     0.00000142    -21674.4026437596 -7.04E-06
    21 OT DIIS     0.15E+00    1.2     0.00000142    -21674.4026504709 -6.71E-06
    22 OT DIIS     0.15E+00    1.2     0.00000142    -21674.4026545548 -4.08E-06
    23 OT DIIS     0.15E+00    1.2     0.00000141    -21674.4026609997 -6.44E-06
    24 OT DIIS     0.15E+00    1.2     0.00000141    -21674.4026678906 -6.89E-06
    25 OT DIIS     0.15E+00    1.2     0.00000141    -21674.4026728280 -4.94E-06
    26 OT DIIS     0.15E+00    1.2     0.00000140    -21674.4026792684 -6.44E-06
    27 OT DIIS     0.15E+00    1.2     0.00000140    -21674.4026889863 -9.72E-06
    28 OT DIIS     0.15E+00    1.2     0.00000140    -21674.4026960449 -7.06E-06
    29 OT DIIS     0.15E+00    1.2     0.00000140    -21674.4027009815 -4.94E-06
    30 OT DIIS     0.15E+00    1.2     0.00000140    -21674.4027062372 -5.26E-06

  Leaving inner SCF loop after reaching    30 steps.


  Electronic density on regular grids:      -3269.9999999953        0.0000000047
  Core density on regular grids:             3269.9999999998       -0.0000000002
  Total charge density on r-space grids:        0.0000000045
  Total charge density g-space grids:           0.0000000045

  Overlap energy of the core charge distribution:               0.00000335738129
  Self energy of the core charge distribution:             -32992.00940381895634
  Core Hamiltonian energy:                                   7342.04427461588693
  Hartree energy:                                            6100.92801823303853
  Exchange-correlation energy:                              -2121.34180734622578
  Dispersion energy:                                           -4.02379127832631

  Total energy:                                            -21674.40270623720062

  outer SCF iter =    5 RMS gradient =   0.14E-05 energy =     -21674.4027062372

  ----------------------------------- OT ---------------------------------------
  Minimizer      : DIIS                : direct inversion
                                         in the iterative subspace
                                         using   7 DIIS vectors
                                         safer DIIS on
  Preconditioner : FULL_KINETIC        : inversion of T + eS
  Precond_solver : DEFAULT
  stepsize       :    0.15000000                  energy_gap     :    0.20000000
  eps_taylor     :   0.10000E-15                  max_taylor     :             4
  ----------------------------------- OT ---------------------------------------

  Step     Update method      Time    Convergence         Total energy    Change
  ------------------------------------------------------------------------------
     1 OT DIIS     0.15E+00    2.7     0.00000139    -21674.4027162526 -1.00E-05
     2 OT DIIS     0.15E+00    1.2     0.00000139    -21674.4027185083 -2.26E-06
     3 OT DIIS     0.15E+00    1.2     0.00000139    -21674.4027193465 -8.38E-07
     4 OT DIIS     0.15E+00    1.2     0.00000138    -21674.4027257311 -6.38E-06
     5 OT DIIS     0.15E+00    1.2     0.00000138    -21674.4027403953 -1.47E-05
     6 OT DIIS     0.15E+00    1.2     0.00000138    -21674.4027507259 -1.03E-05
     7 OT DIIS     0.15E+00    1.2     0.00000138    -21674.4027898890 -3.92E-05
     8 OT DIIS     0.15E+00    1.2     0.00000137    -21674.4028191868 -2.93E-05
     9 OT DIIS     0.15E+00    1.2     0.00000137    -21674.4028509698 -3.18E-05
    10 OT DIIS     0.15E+00    1.2     0.00000137    -21674.4028962628 -4.53E-05
    11 OT DIIS     0.15E+00    1.2     0.00000136    -21674.4030234615 -1.27E-04
    12 OT DIIS     0.15E+00    1.2     0.00000134    -21674.4031131014 -8.96E-05
    13 OT DIIS     0.15E+00    1.2     0.00000134    -21674.4031727336 -5.96E-05
    14 OT DIIS     0.15E+00    1.2     0.00000133    -21674.4032183035 -4.56E-05
    15 OT DIIS     0.15E+00    1.2     0.00000132    -21674.4033188609 -1.01E-04
    16 OT DIIS     0.15E+00    1.2     0.00000132    -21674.4033758099 -5.69E-05
    17 OT DIIS     0.15E+00    1.2     0.00000131    -21674.4034240647 -4.83E-05
    18 OT DIIS     0.15E+00    1.2     0.00000131    -21674.4034503179 -2.63E-05
    19 OT DIIS     0.15E+00    1.2     0.00000130    -21674.4034812511 -3.09E-05
    20 OT DIIS     0.15E+00    1.2     0.00000130    -21674.4034915493 -1.03E-05
    21 OT DIIS     0.15E+00    1.2     0.00000130    -21674.4035041354 -1.26E-05
    22 OT DIIS     0.15E+00    1.2     0.00000130    -21674.4035107761 -6.64E-06
    23 OT DIIS     0.15E+00    1.2     0.00000130    -21674.4035299272 -1.92E-05
    24 OT DIIS     0.15E+00    1.2     0.00000129    -21674.4035406206 -1.07E-05
    25 OT DIIS     0.15E+00    1.2     0.00000129    -21674.4035510035 -1.04E-05
    26 OT DIIS     0.15E+00    1.2     0.00000129    -21674.4035581599 -7.16E-06
    27 OT DIIS     0.15E+00    1.2     0.00000129    -21674.4035688131 -1.07E-05
    28 OT DIIS     0.15E+00    1.2     0.00000128    -21674.4035736645 -4.85E-06
    29 OT DIIS     0.15E+00    1.2     0.00000128    -21674.4035793279 -5.66E-06
    30 OT DIIS     0.15E+00    1.2     0.00000128    -21674.4035825898 -3.26E-06

  Leaving inner SCF loop after reaching    30 steps.


  Electronic density on regular grids:      -3269.9999999953        0.0000000047
  Core density on regular grids:             3269.9999999998       -0.0000000002
  Total charge density on r-space grids:        0.0000000045
  Total charge density g-space grids:           0.0000000045

  Overlap energy of the core charge distribution:               0.00000335738129
  Self energy of the core charge distribution:             -32992.00940381895634
  Core Hamiltonian energy:                                   7341.98457833633711
  Hartree energy:                                            6100.97099580584654
  Exchange-correlation energy:                              -2121.32596499203692
  Dispersion energy:                                           -4.02379127832631

  Total energy:                                            -21674.40358258975175

  outer SCF iter =    6 RMS gradient =   0.13E-05 energy =     -21674.4035825898

  ----------------------------------- OT ---------------------------------------
  Minimizer      : DIIS                : direct inversion
                                         in the iterative subspace
                                         using   7 DIIS vectors
                                         safer DIIS on
  Preconditioner : FULL_KINETIC        : inversion of T + eS
  Precond_solver : DEFAULT
  stepsize       :    0.15000000                  energy_gap     :    0.20000000
  eps_taylor     :   0.10000E-15                  max_taylor     :             4
  ----------------------------------- OT ---------------------------------------

  Step     Update method      Time    Convergence         Total energy    Change
  ------------------------------------------------------------------------------
     1 OT DIIS     0.15E+00    2.8     0.00000127    -21674.4035916310 -9.04E-06
     2 OT DIIS     0.15E+00    1.2     0.00000127    -21674.4035935299 -1.90E-06
     3 OT DIIS     0.15E+00    1.2     0.00000127    -21674.4035942902 -7.60E-07
     4 OT DIIS     0.15E+00    1.2     0.00000127    -21674.4035990423 -4.75E-06
     5 OT DIIS     0.15E+00    1.2     0.00000127    -21674.4036077755 -8.73E-06
     6 OT DIIS     0.15E+00    1.2     0.00000127    -21674.4036123943 -4.62E-06
     7 OT DIIS     0.15E+00    1.2     0.00000127    -21674.4036409029 -2.85E-05
     8 OT DIIS     0.15E+00    1.2     0.00000127    -21674.4036599524 -1.90E-05
     9 OT DIIS     0.15E+00    1.2     0.00000126    -21674.4036800936 -2.01E-05
    10 OT DIIS     0.15E+00    1.2     0.00000126    -21674.4037070320 -2.69E-05
    11 OT DIIS     0.15E+00    1.2     0.00000126    -21674.4038233587 -1.16E-04
    12 OT DIIS     0.15E+00    1.2     0.00000125    -21674.4038756242 -5.23E-05
    13 OT DIIS     0.15E+00    1.2     0.00000125    -21674.4039252749 -4.97E-05
    14 OT DIIS     0.15E+00    1.2     0.00000125    -21674.4039719517 -4.67E-05
    15 OT DIIS     0.15E+00    1.2     0.00000124    -21674.4040664264 -9.45E-05
    16 OT DIIS     0.15E+00    1.2     0.00000123    -21674.4041203670 -5.39E-05
    17 OT DIIS     0.15E+00    1.2     0.00000123    -21674.4041660912 -4.57E-05
    18 OT DIIS     0.15E+00    1.2     0.00000123    -21674.4041937520 -2.77E-05
    19 OT DIIS     0.15E+00    1.2     0.00000123    -21674.4042251336 -3.14E-05
    20 OT DIIS     0.15E+00    1.2     0.00000122    -21674.4042398405 -1.47E-05
    21 OT DIIS     0.15E+00    1.2     0.00000122    -21674.4042573253 -1.75E-05
    22 OT DIIS     0.15E+00    1.2     0.00000122    -21674.4042705427 -1.32E-05
    23 OT DIIS     0.15E+00    1.2     0.00000122    -21674.4043006623 -3.01E-05
    24 OT DIIS     0.15E+00    1.2     0.00000121    -21674.4043179254 -1.73E-05
    25 OT DIIS     0.15E+00    1.2     0.00000121    -21674.4043349269 -1.70E-05
    26 OT DIIS     0.15E+00    1.2     0.00000121    -21674.4043512435 -1.63E-05
    27 OT DIIS     0.15E+00    1.2     0.00000121    -21674.4043658422 -1.46E-05
    28 OT DIIS     0.15E+00    1.2     0.00000121    -21674.4043745303 -8.69E-06
    29 OT DIIS     0.15E+00    1.2     0.00000121    -21674.4043821817 -7.65E-06
    30 OT DIIS     0.15E+00    1.2     0.00000121    -21674.4043860419 -3.86E-06

  Leaving inner SCF loop after reaching    30 steps.


  Electronic density on regular grids:      -3269.9999999953        0.0000000047
  Core density on regular grids:             3269.9999999998       -0.0000000002
  Total charge density on r-space grids:        0.0000000044
  Total charge density g-space grids:           0.0000000044

  Overlap energy of the core charge distribution:               0.00000335738129
  Self energy of the core charge distribution:             -32992.00940381895634
  Core Hamiltonian energy:                                   7341.92342339867173
  Hartree energy:                                            6101.01504956601275
  Exchange-correlation energy:                              -2121.30966726672341
  Dispersion energy:                                           -4.02379127832631

  Total energy:                                            -21674.40438604194060

  outer SCF iter =    7 RMS gradient =   0.12E-05 energy =     -21674.4043860419

  ----------------------------------- OT ---------------------------------------
  Minimizer      : DIIS                : direct inversion
                                         in the iterative subspace
                                         using   7 DIIS vectors
                                         safer DIIS on
  Preconditioner : FULL_KINETIC        : inversion of T + eS
  Precond_solver : DEFAULT
  stepsize       :    0.15000000                  energy_gap     :    0.20000000
  eps_taylor     :   0.10000E-15                  max_taylor     :             4
  ----------------------------------- OT ---------------------------------------

  Step     Update method      Time    Convergence         Total energy    Change
  ------------------------------------------------------------------------------
     1 OT DIIS     0.15E+00    2.8     0.00000120    -21674.4043941672 -8.13E-06
     2 OT DIIS     0.15E+00    1.2     0.00000120    -21674.4043958433 -1.68E-06
     3 OT DIIS     0.15E+00    1.2     0.00000119    -21674.4043965916 -7.48E-07
     4 OT DIIS     0.15E+00    1.2     0.00000119    -21674.4044011187 -4.53E-06
     5 OT DIIS     0.15E+00    1.2     0.00000119    -21674.4044084304 -7.31E-06
     6 OT DIIS     0.15E+00    1.2     0.00000119    -21674.4044135459 -5.12E-06
     7 OT DIIS     0.15E+00    1.2     0.00000119    -21674.4044331413 -1.96E-05
     8 OT DIIS     0.15E+00    1.2     0.00000119    -21674.4044442815 -1.11E-05
     9 OT DIIS     0.15E+00    1.2     0.00000119    -21674.4044567392 -1.25E-05
    10 OT DIIS     0.15E+00    1.2     0.00000119    -21674.4044789261 -2.22E-05
    11 OT DIIS     0.15E+00    1.2     0.00000118    -21674.4045426124 -6.37E-05
    12 OT DIIS     0.15E+00    1.2     0.00000118    -21674.4045832767 -4.07E-05
    13 OT DIIS     0.15E+00    1.2     0.00000118    -21674.4046242426 -4.10E-05
    14 OT DIIS     0.15E+00    1.2     0.00000118    -21674.4046704959 -4.63E-05
    15 OT DIIS     0.15E+00    1.2     0.00000117    -21674.4047626415 -9.21E-05
    16 OT DIIS     0.15E+00    1.2     0.00000117    -21674.4048181377 -5.55E-05
    17 OT DIIS     0.15E+00    1.2     0.00000116    -21674.4048664565 -4.83E-05
    18 OT DIIS     0.15E+00    1.2     0.00000116    -21674.4049074309 -4.10E-05
    19 OT DIIS     0.15E+00    1.2     0.00000116    -21674.4049509983 -4.36E-05
    20 OT DIIS     0.15E+00    1.2     0.00000115    -21674.4049722705 -2.13E-05
    21 OT DIIS     0.15E+00    1.2     0.00000115    -21674.4050003007 -2.80E-05
    22 OT DIIS     0.15E+00    1.2     0.00000115    -21674.4050231967 -2.29E-05
    23 OT DIIS     0.15E+00    1.2     0.00000114    -21674.4050811564 -5.80E-05
    24 OT DIIS     0.15E+00    1.2     0.00000114    -21674.4051086317 -2.75E-05
    25 OT DIIS     0.15E+00    1.2     0.00000114    -21674.4051372727 -2.86E-05
    26 OT DIIS     0.15E+00    1.2     0.00000113    -21674.4051594312 -2.22E-05
    27 OT DIIS     0.15E+00    1.3     0.00000113    -21674.4051764581 -1.70E-05
    28 OT DIIS     0.15E+00    1.3     0.00000113    -21674.4051860579 -9.60E-06
    29 OT DIIS     0.15E+00    1.3     0.00000113    -21674.4051968524 -1.08E-05
    30 OT DIIS     0.15E+00    1.4     0.00000113    -21674.4051985402 -1.69E-06

  Leaving inner SCF loop after reaching    30 steps.


  Electronic density on regular grids:      -3269.9999999953        0.0000000047
  Core density on regular grids:             3269.9999999998       -0.0000000002
  Total charge density on r-space grids:        0.0000000045
  Total charge density g-space grids:           0.0000000045

  Overlap energy of the core charge distribution:               0.00000335738129
  Self energy of the core charge distribution:             -32992.00940381895634
  Core Hamiltonian energy:                                   7341.85844476030707
  Hartree energy:                                            6101.06200816321780
  Exchange-correlation energy:                              -2121.29245972380022
  Dispersion energy:                                           -4.02379127832631

  Total energy:                                            -21674.40519854017839

  outer SCF iter =    8 RMS gradient =   0.11E-05 energy =     -21674.4051985402

  ----------------------------------- OT ---------------------------------------
  Minimizer      : DIIS                : direct inversion
                                         in the iterative subspace
                                         using   7 DIIS vectors
                                         safer DIIS on
  Preconditioner : FULL_KINETIC        : inversion of T + eS
  Precond_solver : DEFAULT
  stepsize       :    0.15000000                  energy_gap     :    0.20000000
  eps_taylor     :   0.10000E-15                  max_taylor     :             4
  ----------------------------------- OT ---------------------------------------

  Step     Update method      Time    Convergence         Total energy    Change
  ------------------------------------------------------------------------------
     1 OT DIIS     0.15E+00    2.9     0.00000112    -21674.4052086088 -1.01E-05
     2 OT DIIS     0.15E+00    1.2     0.00000112    -21674.4052100710 -1.46E-06
     3 OT DIIS     0.15E+00    1.2     0.00000112    -21674.4052107057 -6.35E-07
     4 OT DIIS     0.15E+00    1.2     0.00000111    -21674.4052149502 -4.24E-06
     5 OT DIIS     0.15E+00    1.2     0.00000111    -21674.4052212732 -6.32E-06
     6 OT DIIS     0.15E+00    1.2     0.00000111    -21674.4052248989 -3.63E-06
     7 OT DIIS     0.15E+00    1.2     0.00000111    -21674.4052377169 -1.28E-05
     8 OT DIIS     0.15E+00    1.2     0.00000111    -21674.4052464943 -8.78E-06
     9 OT DIIS     0.15E+00    1.2     0.00000111    -21674.4052557991 -9.30E-06
    10 OT DIIS     0.15E+00    1.2     0.00000111    -21674.4052712985 -1.55E-05
    11 OT DIIS     0.15E+00    1.2     0.00000111    -21674.4053145416 -4.32E-05
    12 OT DIIS     0.15E+00    1.2     0.00000110    -21674.4053417833 -2.72E-05
    13 OT DIIS     0.15E+00    1.2     0.00000110    -21674.4053650281 -2.32E-05
    14 OT DIIS     0.15E+00    1.2     0.00000110    -21674.4053890576 -2.40E-05
    15 OT DIIS     0.15E+00    1.2     0.00000110    -21674.4054477420 -5.87E-05
    16 OT DIIS     0.15E+00    1.2     0.00000109    -21674.4054920769 -4.43E-05
    17 OT DIIS     0.15E+00    1.2     0.00000109    -21674.4055339064 -4.18E-05
    18 OT DIIS     0.15E+00    1.2     0.00000109    -21674.4055714466 -3.75E-05
    19 OT DIIS     0.15E+00    1.2     0.00000108    -21674.4056227739 -5.13E-05
    20 OT DIIS     0.15E+00    1.2     0.00000108    -21674.4056455792 -2.28E-05
    21 OT DIIS     0.15E+00    1.2     0.00000108    -21674.4056693815 -2.38E-05
    22 OT DIIS     0.15E+00    1.2     0.00000107    -21674.4056896217 -2.02E-05
    23 OT DIIS     0.15E+00    1.2     0.00000107    -21674.4057310543 -4.14E-05
    24 OT DIIS     0.15E+00    1.2     0.00000106    -21674.4057524925 -2.14E-05
    25 OT DIIS     0.15E+00    1.2     0.00000106    -21674.4057710322 -1.85E-05
    26 OT DIIS     0.15E+00    1.2     0.00000106    -21674.4057874499 -1.64E-05
    27 OT DIIS     0.15E+00    1.2     0.00000106    -21674.4058052212 -1.78E-05
    28 OT DIIS     0.15E+00    1.2     0.00000105    -21674.4058124824 -7.26E-06
    29 OT DIIS     0.15E+00    1.2     0.00000105    -21674.4058186497 -6.17E-06
    30 OT DIIS     0.15E+00    1.2     0.00000105    -21674.4058235480 -4.90E-06

  Leaving inner SCF loop after reaching    30 steps.


  Electronic density on regular grids:      -3269.9999999953        0.0000000047
  Core density on regular grids:             3269.9999999998       -0.0000000002
  Total charge density on r-space grids:        0.0000000045
  Total charge density g-space grids:           0.0000000045

  Overlap energy of the core charge distribution:               0.00000335738129
  Self energy of the core charge distribution:             -32992.00940381895634
  Core Hamiltonian energy:                                   7341.80728255292161
  Hartree energy:                                            6101.09892341072191
  Exchange-correlation energy:                              -2121.27883777174611
  Dispersion energy:                                           -4.02379127832631

  Total energy:                                            -21674.40582354800426

  outer SCF iter =    9 RMS gradient =   0.11E-05 energy =     -21674.4058235480

  ----------------------------------- OT ---------------------------------------
  Minimizer      : DIIS                : direct inversion
                                         in the iterative subspace
                                         using   7 DIIS vectors
                                         safer DIIS on
  Preconditioner : FULL_KINETIC        : inversion of T + eS
  Precond_solver : DEFAULT
  stepsize       :    0.15000000                  energy_gap     :    0.20000000
  eps_taylor     :   0.10000E-15                  max_taylor     :             4
  ----------------------------------- OT ---------------------------------------

  Step     Update method      Time    Convergence         Total energy    Change
  ------------------------------------------------------------------------------
     1 OT DIIS     0.15E+00    2.7     0.00000104    -21674.4058329528 -9.40E-06
     2 OT DIIS     0.15E+00    1.2     0.00000105    -21674.4058342302 -1.28E-06
     3 OT DIIS     0.15E+00    1.2     0.00000104    -21674.4058347903 -5.60E-07
     4 OT DIIS     0.15E+00    1.2     0.00000104    -21674.4058380122 -3.22E-06
     5 OT DIIS     0.15E+00    1.2     0.00000104    -21674.4058448209 -6.81E-06
     6 OT DIIS     0.15E+00    1.2     0.00000104    -21674.4058475779 -2.76E-06
     7 OT DIIS     0.15E+00    1.2     0.00000104    -21674.4058583139 -1.07E-05
     8 OT DIIS     0.15E+00    1.2     0.00000104    -21674.4058697097 -1.14E-05
     9 OT DIIS     0.15E+00    1.2     0.00000104    -21674.4058808414 -1.11E-05
    10 OT DIIS     0.15E+00    1.2     0.00000103    -21674.4058973279 -1.65E-05
    11 OT DIIS     0.15E+00    1.2     0.00000103    -21674.4059488236 -5.15E-05
    12 OT DIIS     0.15E+00    1.2     0.00000103    -21674.4059779506 -2.91E-05
    13 OT DIIS     0.15E+00    1.2     0.00000103    -21674.4060001594 -2.22E-05
    14 OT DIIS     0.15E+00    1.2     0.00000102    -21674.4060206187 -2.05E-05
    15 OT DIIS     0.15E+00    1.2     0.00000102    -21674.4060674148 -4.68E-05
    16 OT DIIS     0.15E+00    1.2     0.00000102    -21674.4061138605 -4.64E-05
    17 OT DIIS     0.15E+00    1.2     0.00000101    -21674.4061638255 -5.00E-05
    18 OT DIIS     0.15E+00    1.2     0.00000101    -21674.4062079656 -4.41E-05
    19 OT DIIS     0.15E+00    1.2     0.00000100    -21674.4062745467 -6.66E-05

  *** SCF run converged in    19 steps ***


  Electronic density on regular grids:      -3269.9999999960        0.0000000040
  Core density on regular grids:             3269.9999999998       -0.0000000002
  Total charge density on r-space grids:        0.0000000038
  Total charge density g-space grids:           0.0000000038

  Overlap energy of the core charge distribution:               0.00000335738129
  Self energy of the core charge distribution:             -32992.00940381895634
  Core Hamiltonian energy:                                   7341.77181661387476
  Hartree energy:                                            6101.12452414613472
  Exchange-correlation energy:                              -2121.26942356677409
  Dispersion energy:                                           -4.02379127832631

  Total energy:                                            -21674.40627454666537

  outer SCF iter =   10 RMS gradient =   0.10E-05 energy =     -21674.4062745467
  outer SCF loop converged in  10 iterations or  289 steps


 ENERGY| Total FORCE_EVAL ( QS ) energy [a.u.]:           -21674.406303394811403

 --------  Informations at step =     0 ------------
  Optimization Method        =                 BFGS
  Total Energy               =    -21674.4063033948
  Used time                  =              366.685
 ---------------------------------------------------

 --------------------------
 OPTIMIZATION STEP:      1
 --------------------------

  Step is scaled; Scaling factor =  0.72736

 Number of electrons:                                                       3270
 Number of occupied orbitals:                                               1635
 Number of molecular orbitals:                                              1635

 Number of orbital functions:                                               4788
 Number of independent orbital functions:                                   4788

 Extrapolation method: ASPC


 SCF WAVEFUNCTION OPTIMIZATION

  ----------------------------------- OT ---------------------------------------
  Minimizer      : DIIS                : direct inversion
                                         in the iterative subspace
                                         using   7 DIIS vectors
                                         safer DIIS on
  Preconditioner : FULL_KINETIC        : inversion of T + eS
  Precond_solver : DEFAULT
  stepsize       :    0.15000000                  energy_gap     :    0.20000000
  eps_taylor     :   0.10000E-15                  max_taylor     :             4
  ----------------------------------- OT ---------------------------------------

  Step     Update method      Time    Convergence         Total energy    Change
  ------------------------------------------------------------------------------
     1 OT DIIS     0.15E+00    1.1     0.00006112    -21674.4162967043 -2.17E+04
     2 OT DIIS     0.15E+00    1.2     0.00004009    -21674.4194568280 -3.16E-03
     3 OT DIIS     0.15E+00    1.2     0.00003171    -21674.4209728113 -1.52E-03
     4 OT DIIS     0.15E+00    1.2     0.00002608    -21674.4224138018 -1.44E-03
     5 OT DIIS     0.15E+00    1.2     0.00001952    -21674.4231076978 -6.94E-04
     6 OT DIIS     0.15E+00    1.2     0.00001481    -21674.4237030511 -5.95E-04
     7 OT DIIS     0.15E+00    1.2     0.00001233    -21674.4240323375 -3.29E-04
     8 OT DIIS     0.15E+00    1.2     0.00000920    -21674.4243831888 -3.51E-04
     9 OT DIIS     0.15E+00    1.2     0.00000798    -21674.4245327572 -1.50E-04
    10 OT DIIS     0.15E+00    1.2     0.00000701    -21674.4246708652 -1.38E-04
    11 OT DIIS     0.15E+00    1.2     0.00000639    -21674.4247903457 -1.19E-04
    12 OT DIIS     0.15E+00    1.2     0.00000547    -21674.4249213408 -1.31E-04
    13 OT DIIS     0.15E+00    1.2     0.00000497    -21674.4250015611 -8.02E-05
    14 OT DIIS     0.15E+00    1.2     0.00000455    -21674.4250777161 -7.62E-05
    15 OT DIIS     0.15E+00    1.2     0.00000427    -21674.4251410489 -6.33E-05
    16 OT DIIS     0.15E+00    1.2     0.00000389    -21674.4252030541 -6.20E-05
    17 OT DIIS     0.15E+00    1.2     0.00000367    -21674.4252501892 -4.71E-05
    18 OT DIIS     0.15E+00    1.2     0.00000345    -21674.4252973228 -4.71E-05
    19 OT DIIS     0.15E+00    1.2     0.00000323    -21674.4253407807 -4.35E-05
    20 OT DIIS     0.15E+00    1.2     0.00000303    -21674.4253823902 -4.16E-05
    21 OT DIIS     0.15E+00    1.2     0.00000290    -21674.4254171288 -3.47E-05
    22 OT DIIS     0.15E+00    1.2     0.00000279    -21674.4254540601 -3.69E-05
    23 OT DIIS     0.15E+00    1.2     0.00000265    -21674.4254837670 -2.97E-05
    24 OT DIIS     0.15E+00    1.2     0.00000252    -21674.4255127104 -2.89E-05
    25 OT DIIS     0.15E+00    1.2     0.00000244    -21674.4255367248 -2.40E-05
    26 OT DIIS     0.15E+00    1.2     0.00000235    -21674.4255638032 -2.71E-05
    27 OT DIIS     0.15E+00    1.2     0.00000226    -21674.4255868662 -2.31E-05
    28 OT DIIS     0.15E+00    1.2     0.00000219    -21674.4256090769 -2.22E-05
    29 OT DIIS     0.15E+00    1.2     0.00000213    -21674.4256279542 -1.89E-05
    30 OT DIIS     0.15E+00    1.2     0.00000208    -21674.4256484802 -2.05E-05

  Leaving inner SCF loop after reaching    30 steps.


  Electronic density on regular grids:      -3270.0000000044       -0.0000000044
  Core density on regular grids:             3270.0000000002        0.0000000002
  Total charge density on r-space grids:       -0.0000000042
  Total charge density g-space grids:          -0.0000000042

  Overlap energy of the core charge distribution:               0.00000263604966
  Self energy of the core charge distribution:             -32992.00940381895634
  Core Hamiltonian energy:                                   7340.97744796620282
  Hartree energy:                                            6101.64115218430925
  Exchange-correlation energy:                              -2121.01734329846386
  Dispersion energy:                                           -4.01750414931312

  Total energy:                                            -21674.42564848016991

  outer SCF iter =    1 RMS gradient =   0.21E-05 energy =     -21674.4256484802

  ----------------------------------- OT ---------------------------------------
  Minimizer      : DIIS                : direct inversion
                                         in the iterative subspace
                                         using   7 DIIS vectors
                                         safer DIIS on
  Preconditioner : FULL_KINETIC        : inversion of T + eS
  Precond_solver : DEFAULT
  stepsize       :    0.15000000                  energy_gap     :    0.20000000
  eps_taylor     :   0.10000E-15                  max_taylor     :             4
  ----------------------------------- OT ---------------------------------------

  Step     Update method      Time    Convergence         Total energy    Change
  ------------------------------------------------------------------------------
     1 OT DIIS     0.15E+00    2.7     0.00000202    -21674.4256660228 -1.75E-05
     2 OT DIIS     0.15E+00    1.2     0.00000205    -21674.4256706286 -4.61E-06
     3 OT DIIS     0.15E+00    1.2     0.00000197    -21674.4256725724 -1.94E-06
     4 OT DIIS     0.15E+00    1.2     0.00000194    -21674.4256880350 -1.55E-05
     5 OT DIIS     0.15E+00    1.2     0.00000185    -21674.4257098764 -2.18E-05
     6 OT DIIS     0.15E+00    1.2     0.00000184    -21674.4257225901 -1.27E-05
     7 OT DIIS     0.15E+00    1.2     0.00000174    -21674.4257899214 -6.73E-05
     8 OT DIIS     0.15E+00    1.2     0.00000163    -21674.4258274061 -3.75E-05
     9 OT DIIS     0.15E+00    1.2     0.00000158    -21674.4258578813 -3.05E-05
    10 OT DIIS     0.15E+00    1.2     0.00000156    -21674.4258852128 -2.73E-05
    11 OT DIIS     0.15E+00    1.2     0.00000144    -21674.4259459685 -6.08E-05
    12 OT DIIS     0.15E+00    1.2     0.00000139    -21674.4259631160 -1.71E-05
    13 OT DIIS     0.15E+00    1.2     0.00000136    -21674.4259759168 -1.28E-05
    14 OT DIIS     0.15E+00    1.2     0.00000134    -21674.4259836983 -7.78E-06
    15 OT DIIS     0.15E+00    1.2     0.00000131    -21674.4260006063 -1.69E-05
    16 OT DIIS     0.15E+00    1.2     0.00000128    -21674.4260085207 -7.91E-06
    17 OT DIIS     0.15E+00    1.2     0.00000128    -21674.4260145474 -6.03E-06
    18 OT DIIS     0.15E+00    1.2     0.00000126    -21674.4260165799 -2.03E-06
    19 OT DIIS     0.15E+00    1.2     0.00000125    -21674.4260223331 -5.75E-06
    20 OT DIIS     0.15E+00    1.2     0.00000124    -21674.4260257523 -3.42E-06
    21 OT DIIS     0.15E+00    1.2     0.00000123    -21674.4260334973 -7.74E-06
    22 OT DIIS     0.15E+00    1.2     0.00000122    -21674.4260378869 -4.39E-06
    23 OT DIIS     0.15E+00    1.2     0.00000121    -21674.4260457283 -7.84E-06
    24 OT DIIS     0.15E+00    1.2     0.00000121    -21674.4260506169 -4.89E-06
    25 OT DIIS     0.15E+00    1.2     0.00000120    -21674.4260594218 -8.80E-06
    26 OT DIIS     0.15E+00    1.2     0.00000118    -21674.4260753982 -1.60E-05
    27 OT DIIS     0.15E+00    1.2     0.00000116    -21674.4260965288 -2.11E-05
    28 OT DIIS     0.15E+00    1.2     0.00000115    -21674.4261098470 -1.33E-05
    29 OT DIIS     0.15E+00    1.2     0.00000114    -21674.4261331684 -2.33E-05
    30 OT DIIS     0.15E+00    1.2     0.00000112    -21674.4261579010 -2.47E-05

  Leaving inner SCF loop after reaching    30 steps.


  Electronic density on regular grids:      -3270.0000000044       -0.0000000044
  Core density on regular grids:             3270.0000000002        0.0000000002
  Total charge density on r-space grids:       -0.0000000042
  Total charge density g-space grids:          -0.0000000042

  Overlap energy of the core charge distribution:               0.00000263604966
  Self energy of the core charge distribution:             -32992.00940381895634
  Core Hamiltonian energy:                                   7340.96349770782945
  Hartree energy:                                            6101.65154331320809
  Exchange-correlation energy:                              -2121.01429358979567
  Dispersion energy:                                           -4.01750414931312

  Total energy:                                            -21674.42615790097625

  outer SCF iter =    2 RMS gradient =   0.11E-05 energy =     -21674.4261579010

  ----------------------------------- OT ---------------------------------------
  Minimizer      : DIIS                : direct inversion
                                         in the iterative subspace
                                         using   7 DIIS vectors
                                         safer DIIS on
  Preconditioner : FULL_KINETIC        : inversion of T + eS
  Precond_solver : DEFAULT
  stepsize       :    0.15000000                  energy_gap     :    0.20000000
  eps_taylor     :   0.10000E-15                  max_taylor     :             4
  ----------------------------------- OT ---------------------------------------

  Step     Update method      Time    Convergence         Total energy    Change
  ------------------------------------------------------------------------------
     1 OT DIIS     0.15E+00    2.7     0.00000109    -21674.4261795543 -2.17E-05
     2 OT DIIS     0.15E+00    1.2     0.00000109    -21674.4261809403 -1.39E-06
     3 OT DIIS     0.15E+00    1.2     0.00000108    -21674.4261816399 -7.00E-07
     4 OT DIIS     0.15E+00    1.2     0.00000108    -21674.4261867997 -5.16E-06
     5 OT DIIS     0.15E+00    1.2     0.00000106    -21674.4261916801 -4.88E-06
     6 OT DIIS     0.15E+00    1.2     0.00000106    -21674.4261936623 -1.98E-06
     7 OT DIIS     0.15E+00    1.2     0.00000105    -21674.4262050603 -1.14E-05
     8 OT DIIS     0.15E+00    1.2     0.00000104    -21674.4262119987 -6.94E-06
     9 OT DIIS     0.15E+00    1.2     0.00000104    -21674.4262196644 -7.67E-06
    10 OT DIIS     0.15E+00    1.2     0.00000104    -21674.4262289552 -9.29E-06
    11 OT DIIS     0.15E+00    1.2     0.00000102    -21674.4262630961 -3.41E-05
    12 OT DIIS     0.15E+00    1.2     0.00000101    -21674.4262808397 -1.77E-05
    13 OT DIIS     0.15E+00    1.2     0.00000100    -21674.4262986754 -1.78E-05
    14 OT DIIS     0.15E+00    1.2     0.00000100    -21674.4263136186 -1.49E-05

  *** SCF run converged in    14 steps ***


  Electronic density on regular grids:      -3270.0000000044       -0.0000000044
  Core density on regular grids:             3270.0000000002        0.0000000002
  Total charge density on r-space grids:       -0.0000000042
  Total charge density g-space grids:          -0.0000000042

  Overlap energy of the core charge distribution:               0.00000263604966
  Self energy of the core charge distribution:             -32992.00940381895634
  Core Hamiltonian energy:                                   7340.95477298146398
  Hartree energy:                                            6101.65796655310533
  Exchange-correlation energy:                              -2121.01214782095758
  Dispersion energy:                                           -4.01750414931312

  Total energy:                                            -21674.42631361860549

  outer SCF iter =    3 RMS gradient =   0.10E-05 energy =     -21674.4263136186
  outer SCF loop converged in   3 iterations or   74 steps


 ENERGY| Total FORCE_EVAL ( QS ) energy [a.u.]:           -21674.426353254926653

 --------  Informations at step =     1 ------------
  Optimization Method        =                 BFGS
  Total Energy               =    -21674.4263532549
  Real energy change         =        -0.0200498601
  Predicted change in energy =        -0.0178167416
  Scaling factor             =         0.7273589045
  Step size                  =         0.1000000000
  Trust radius               =         0.1000000000
  Decrease in energy         =                  YES
  Used time                  =               95.642

  Convergence check :
  Max. step size             =         0.1000000000
  Conv. limit for step size  =         0.0200000000
  Convergence in step size   =                   NO
  RMS step size              =         0.0172714847
  Conv. limit for RMS step   =         0.0200000000
  Convergence in RMS step    =                  YES
  Max. gradient              =         0.0168575262
  Conv. limit for gradients  =         0.0030000000
  Conv. for gradients        =                   NO
  RMS gradient               =         0.0020274620
  Conv. limit for RMS grad.  =         0.0010000000
  Conv. for gradients        =                   NO
 ---------------------------------------------------
 Estimated peak process memory after this step [MiB]                         407

 --------------------------
 OPTIMIZATION STEP:      2
 --------------------------

  Step is scaled; Scaling factor =  0.48630

 Number of electrons:                                                       3270
 Number of occupied orbitals:                                               1635
 Number of molecular orbitals:                                              1635

 Number of orbital functions:                                               4788
 Number of independent orbital functions:                                   4788

 Extrapolation method: ASPC


 SCF WAVEFUNCTION OPTIMIZATION

  ----------------------------------- OT ---------------------------------------
  Minimizer      : DIIS                : direct inversion
                                         in the iterative subspace
                                         using   7 DIIS vectors
                                         safer DIIS on
  Preconditioner : FULL_KINETIC        : inversion of T + eS
  Precond_solver : DEFAULT
  stepsize       :    0.15000000                  energy_gap     :    0.20000000
  eps_taylor     :   0.10000E-15                  max_taylor     :             4
  ----------------------------------- OT ---------------------------------------

  Step     Update method      Time    Convergence         Total energy    Change
  ------------------------------------------------------------------------------
     1 OT DIIS     0.15E+00    1.1     0.00005043    -21674.4283883163 -2.17E+04
     2 OT DIIS     0.15E+00    1.2     0.00003434    -21674.4306076948 -2.22E-03
     3 OT DIIS     0.15E+00    1.2     0.00002741    -21674.4317674975 -1.16E-03
     4 OT DIIS     0.15E+00    1.2     0.00002239    -21674.4329257218 -1.16E-03
     5 OT DIIS     0.15E+00    1.2     0.00001626    -21674.4334449039 -5.19E-04
     6 OT DIIS     0.15E+00    1.2     0.00001207    -21674.4338690708 -4.24E-04
     7 OT DIIS     0.15E+00    1.2     0.00000954    -21674.4340783124 -2.09E-04
     8 OT DIIS     0.15E+00    1.2     0.00000668    -21674.4342674663 -1.89E-04
     9 OT DIIS     0.15E+00    1.2     0.00000565    -21674.4343363855 -6.89E-05
    10 OT DIIS     0.15E+00    1.2     0.00000492    -21674.4343967015 -6.03E-05
    11 OT DIIS     0.15E+00    1.2     0.00000444    -21674.4344473758 -5.07E-05
    12 OT DIIS     0.15E+00    1.2     0.00000377    -21674.4345032884 -5.59E-05
    13 OT DIIS     0.15E+00    1.2     0.00000340    -21674.4345380444 -3.48E-05
    14 OT DIIS     0.15E+00    1.2     0.00000309    -21674.4345715369 -3.35E-05
    15 OT DIIS     0.15E+00    1.2     0.00000288    -21674.4345981935 -2.67E-05
    16 OT DIIS     0.15E+00    1.2     0.00000261    -21674.4346239808 -2.58E-05
    17 OT DIIS     0.15E+00    1.2     0.00000244    -21674.4346443243 -2.03E-05
    18 OT DIIS     0.15E+00    1.2     0.00000227    -21674.4346652698 -2.09E-05
    19 OT DIIS     0.15E+00    1.2     0.00000210    -21674.4346839044 -1.86E-05
    20 OT DIIS     0.15E+00    1.2     0.00000196    -21674.4347006625 -1.68E-05
    21 OT DIIS     0.15E+00    1.2     0.00000187    -21674.4347139164 -1.33E-05
    22 OT DIIS     0.15E+00    1.2     0.00000179    -21674.4347277241 -1.38E-05
    23 OT DIIS     0.15E+00    1.2     0.00000168    -21674.4347395026 -1.18E-05
    24 OT DIIS     0.15E+00    1.2     0.00000160    -21674.4347505748 -1.11E-05
    25 OT DIIS     0.15E+00    1.2     0.00000154    -21674.4347597315 -9.16E-06
    26 OT DIIS     0.15E+00    1.2     0.00000148    -21674.4347699399 -1.02E-05
    27 OT DIIS     0.15E+00    1.2     0.00000143    -21674.4347784150 -8.48E-06
    28 OT DIIS     0.15E+00    1.2     0.00000138    -21674.4347865528 -8.14E-06
    29 OT DIIS     0.15E+00    1.2     0.00000135    -21674.4347936633 -7.11E-06
    30 OT DIIS     0.15E+00    1.2     0.00000132    -21674.4348015074 -7.84E-06

  Leaving inner SCF loop after reaching    30 steps.


  Electronic density on regular grids:      -3269.9999999975        0.0000000025
  Core density on regular grids:             3269.9999999999       -0.0000000001
  Total charge density on r-space grids:        0.0000000024
  Total charge density g-space grids:           0.0000000024

  Overlap energy of the core charge distribution:               0.00000219528762
  Self energy of the core charge distribution:             -32992.00940381895634
  Core Hamiltonian energy:                                   7340.55111157760712
  Hartree energy:                                            6101.92779008402795
  Exchange-correlation energy:                              -2120.88982314521672
  Dispersion energy:                                           -4.01447840010409

  Total energy:                                            -21674.43480150735923

  outer SCF iter =    1 RMS gradient =   0.13E-05 energy =     -21674.4348015074

  ----------------------------------- OT ---------------------------------------
  Minimizer      : DIIS                : direct inversion
                                         in the iterative subspace
                                         using   7 DIIS vectors
                                         safer DIIS on
  Preconditioner : FULL_KINETIC        : inversion of T + eS
  Precond_solver : DEFAULT
  stepsize       :    0.15000000                  energy_gap     :    0.20000000
  eps_taylor     :   0.10000E-15                  max_taylor     :             4
  ----------------------------------- OT ---------------------------------------

  Step     Update method      Time    Convergence         Total energy    Change
  ------------------------------------------------------------------------------
     1 OT DIIS     0.15E+00    2.7     0.00000128    -21674.4348084805 -6.97E-06
     2 OT DIIS     0.15E+00    1.2     0.00000129    -21674.4348103313 -1.85E-06
     3 OT DIIS     0.15E+00    1.2     0.00000125    -21674.4348111309 -8.00E-07
     4 OT DIIS     0.15E+00    1.2     0.00000123    -21674.4348173535 -6.22E-06
     5 OT DIIS     0.15E+00    1.2     0.00000118    -21674.4348258951 -8.54E-06
     6 OT DIIS     0.15E+00    1.2     0.00000117    -21674.4348316573 -5.76E-06
     7 OT DIIS     0.15E+00    1.2     0.00000110    -21674.4348592239 -2.76E-05
     8 OT DIIS     0.15E+00    1.2     0.00000105    -21674.4348723986 -1.32E-05
     9 OT DIIS     0.15E+00    1.2     0.00000102    -21674.4348841304 -1.17E-05
    10 OT DIIS     0.15E+00    1.2     0.00000100    -21674.4348961273 -1.20E-05
    11 OT DIIS     0.15E+00    1.2     0.00000094    -21674.4349176572 -2.15E-05

  *** SCF run converged in    11 steps ***


  Electronic density on regular grids:      -3269.9999999975        0.0000000025
  Core density on regular grids:             3269.9999999999       -0.0000000001
  Total charge density on r-space grids:        0.0000000024
  Total charge density g-space grids:           0.0000000024

  Overlap energy of the core charge distribution:               0.00000219528762
  Self energy of the core charge distribution:             -32992.00940381895634
  Core Hamiltonian energy:                                   7340.54609078394606
  Hartree energy:                                            6101.93136374015194
  Exchange-correlation energy:                              -2120.88849215754317
  Dispersion energy:                                           -4.01447840010409

  Total energy:                                            -21674.43491765722501

  outer SCF iter =    2 RMS gradient =   0.94E-06 energy =     -21674.4349176572
  outer SCF loop converged in   2 iterations or   41 steps


 ENERGY| Total FORCE_EVAL ( QS ) energy [a.u.]:           -21674.434922690150415

 --------  Informations at step =     2 ------------
  Optimization Method        =                 BFGS
  Total Energy               =    -21674.4349226902
  Real energy change         =        -0.0085694352
  Predicted change in energy =        -0.0074220079
  Scaling factor             =         0.4862972164
  Step size                  =         0.1000000000
  Trust radius               =         0.1000000000
  Decrease in energy         =                  YES
  Used time                  =               55.644

  Convergence check :
  Max. step size             =         0.1000000000
  Conv. limit for step size  =         0.0200000000
  Convergence in step size   =                   NO
  RMS step size              =         0.0113901649
  Conv. limit for RMS step   =         0.0200000000
  Convergence in RMS step    =                  YES
  Max. gradient              =         0.0155093126
  Conv. limit for gradients  =         0.0030000000
  Conv. for gradients        =                   NO
  RMS gradient               =         0.0016043120
  Conv. limit for RMS grad.  =         0.0010000000
  Conv. for gradients        =                   NO
 ---------------------------------------------------
 Estimated peak process memory after this step [MiB]                         409

 --------------------------
 OPTIMIZATION STEP:      3
 --------------------------

  Step is scaled; Scaling factor =  0.37814

 Number of electrons:                                                       3270
 Number of occupied orbitals:                                               1635
 Number of molecular orbitals:                                              1635

 Number of orbital functions:                                               4788
 Number of independent orbital functions:                                   4788

 Extrapolation method: ASPC


 SCF WAVEFUNCTION OPTIMIZATION

  ----------------------------------- OT ---------------------------------------
  Minimizer      : DIIS                : direct inversion
                                         in the iterative subspace
                                         using   7 DIIS vectors
                                         safer DIIS on
  Preconditioner : FULL_KINETIC        : inversion of T + eS
  Precond_solver : DEFAULT
  stepsize       :    0.15000000                  energy_gap     :    0.20000000
  eps_taylor     :   0.10000E-15                  max_taylor     :             4
  ----------------------------------- OT ---------------------------------------

  Step     Update method      Time    Convergence         Total energy    Change
  ------------------------------------------------------------------------------
     1 OT DIIS     0.15E+00    1.1     0.00003024    -21674.4375787366 -2.17E+04
     2 OT DIIS     0.15E+00    1.2     0.00002205    -21674.4384734855 -8.95E-04
     3 OT DIIS     0.15E+00    1.2     0.00001735    -21674.4392222212 -7.49E-04
     4 OT DIIS     0.15E+00    1.2     0.00001379    -21674.4396097214 -3.88E-04
     5 OT DIIS     0.15E+00    1.2     0.00001000    -21674.4398268670 -2.17E-04
     6 OT DIIS     0.15E+00    1.2     0.00000763    -21674.4399885658 -1.62E-04
     7 OT DIIS     0.15E+00    1.2     0.00000555    -21674.4400844918 -9.59E-05
     8 OT DIIS     0.15E+00    1.2     0.00000406    -21674.4401444563 -6.00E-05
     9 OT DIIS     0.15E+00    1.2     0.00000354    -21674.4401685843 -2.41E-05
    10 OT DIIS     0.15E+00    1.2     0.00000307    -21674.4401922826 -2.37E-05
    11 OT DIIS     0.15E+00    1.2     0.00000271    -21674.4402140660 -2.18E-05
    12 OT DIIS     0.15E+00    1.2     0.00000234    -21674.4402333287 -1.93E-05
    13 OT DIIS     0.15E+00    1.2     0.00000212    -21674.4402470309 -1.37E-05
    14 OT DIIS     0.15E+00    1.2     0.00000193    -21674.4402598186 -1.28E-05
    15 OT DIIS     0.15E+00    1.2     0.00000179    -21674.4402700669 -1.02E-05
    16 OT DIIS     0.15E+00    1.2     0.00000167    -21674.4402790129 -8.95E-06
    17 OT DIIS     0.15E+00    1.2     0.00000158    -21674.4402865310 -7.52E-06
    18 OT DIIS     0.15E+00    1.2     0.00000146    -21674.4402955355 -9.00E-06
    19 OT DIIS     0.15E+00    1.2     0.00000137    -21674.4403035043 -7.97E-06
    20 OT DIIS     0.15E+00    1.2     0.00000131    -21674.4403101078 -6.60E-06
    21 OT DIIS     0.15E+00    1.2     0.00000126    -21674.4403159618 -5.85E-06
    22 OT DIIS     0.15E+00    1.2     0.00000121    -21674.4403221061 -6.14E-06
    23 OT DIIS     0.15E+00    1.2     0.00000116    -21674.4403276653 -5.56E-06
    24 OT DIIS     0.15E+00    1.2     0.00000113    -21674.4403328790 -5.21E-06
    25 OT DIIS     0.15E+00    1.2     0.00000110    -21674.4403376100 -4.73E-06
    26 OT DIIS     0.15E+00    1.2     0.00000107    -21674.4403430237 -5.41E-06
    27 OT DIIS     0.15E+00    1.2     0.00000105    -21674.4403474420 -4.42E-06
    28 OT DIIS     0.15E+00    1.2     0.00000103    -21674.4403518728 -4.43E-06
    29 OT DIIS     0.15E+00    1.2     0.00000102    -21674.4403563956 -4.52E-06
    30 OT DIIS     0.15E+00    1.2     0.00000100    -21674.4403614792 -5.08E-06

  *** SCF run converged in    30 steps ***


  Electronic density on regular grids:      -3270.0000000006       -0.0000000006
  Core density on regular grids:             3270.0000000000        0.0000000000
  Total charge density on r-space grids:       -0.0000000006
  Total charge density g-space grids:          -0.0000000006

  Overlap energy of the core charge distribution:               0.00000189759997
  Self energy of the core charge distribution:             -32992.00940381895634
  Core Hamiltonian energy:                                   7340.29499112136364
  Hartree energy:                                            6102.10303800110432
  Exchange-correlation energy:                              -2120.81606184814245
  Dispersion energy:                                           -4.01292683219450

  Total energy:                                            -21674.44036147922452

  outer SCF iter =    1 RMS gradient =   0.10E-05 energy =     -21674.4403614792
  outer SCF loop converged in   1 iterations or   30 steps


 ENERGY| Total FORCE_EVAL ( QS ) energy [a.u.]:           -21674.440366090333555

 --------  Informations at step =     3 ------------
  Optimization Method        =                 BFGS
[...]
 flops   128 x    96 x    96        7915230461952       0.0%    100.0%      0.0%
 flops    96 x   128 x   291        8482217066496       0.0%    100.0%      0.0%
 flops   128 x    96 x   291        8482217066496       0.0%    100.0%      0.0%
 flops    96 x   128 x   299        8715405164544       0.0%    100.0%      0.0%
 flops   128 x    96 x   299        8715405164544       0.0%    100.0%      0.0%
 flops   291 x    96 x   291       10142339567616       0.0%    100.0%      0.0%
 flops   291 x    96 x   299       10421166772224       0.0%    100.0%      0.0%
 flops   299 x    96 x   291       10421166772224       0.0%    100.0%      0.0%
 flops   291 x   128 x    96       10536733310976       0.0%    100.0%      0.0%
 flops   291 x    96 x   128       10536733310976       0.0%    100.0%      0.0%
 flops   299 x    96 x   299       10707659329536       0.0%    100.0%      0.0%
 flops   299 x    96 x   128       10826402955264       0.0%    100.0%      0.0%
 flops   299 x   128 x    96       10826402955264       0.0%    100.0%      0.0%
 flops    26 x    26 x   128       12144606289920       0.0%    100.0%      0.0%
 flops    96 x    96 x   312       18188671647744       0.0%    100.0%      0.0%
 flops   312 x    96 x    96       22594232254464       0.0%    100.0%      0.0%
 flops    96 x    96 x    96       23745691385856       0.0%    100.0%      0.0%
 flops    96 x    96 x   291       25446651199488       0.0%    100.0%      0.0%
 flops    96 x    96 x   299       26146215493632       0.0%    100.0%      0.0%
 flops   291 x    96 x    96       31610199932928       0.0%    100.0%      0.0%
 flops   299 x    96 x    96       32479208865792       0.0%    100.0%      0.0%
 flops    26 x    26 x    96       36433818869760       0.0%    100.0%      0.0%
 flops    26 x    32 x    26      214325321932800       0.0%    100.0%      0.0%
 flops inhomo. stacks                           0       0.0%      0.0%      0.0%
 flops total                       770.192621E+12       0.0%    100.0%      0.0%
 flops max/rank                      3.987070E+12       0.0%    100.0%      0.0%
 matmuls inhomo. stacks                         0       0.0%      0.0%      0.0%
 matmuls total                         6261372672       0.0%    100.0%      0.0%
 number of processed stacks             143808220       0.0%    100.0%      0.0%
 average stack size                                     0.0      43.5       0.0
 marketing flops                   826.496797E+12
 -------------------------------------------------------------------------------
 # multiplications                          26070
 max memory usage/rank             439.808000E+06
 # max total images/rank                        1
 # max 3D layers                                1
 # MPI messages exchanged               200217600
 MPI messages size (bytes):
  total size                        43.016887E+12
  min size                           0.000000E+00
  max size                         778.752000E+03
  average size                     214.850672E+03
 MPI breakdown and total messages size (bytes):
             size <=      128              642960                        0
       128 < size <=     8192                   0                        0
      8192 < size <=    32768               13680                357273720
     32768 < size <=   131072            85835520            7170551811000
    131072 < size <=  4194304           113725440           35868508724160
   4194304 < size <= 16777216                   0                        0
  16777216 < size                               0                        0
 -------------------------------------------------------------------------------
 -                                                                             -
 -                      DBCSR MESSAGE PASSING PERFORMANCE                      -
 -                                                                             -
 -------------------------------------------------------------------------------
 ROUTINE             CALLS      AVE VOLUME [Bytes]
 MP_Bcast              160                     12.
 MP_Allreduce       141554                      8.
 MP_Alltoall         79716                  89865.
 MP_ISend          1668252                 112689.
 MP_IRecv          1668252                 111814.
 -------------------------------------------------------------------------------

 -------------------------------------------------------------------------------
 -                                                                             -
 -                                DBM STATISTICS                               -
 -                                                                             -
 -------------------------------------------------------------------------------
    M  x    N  x    K                                          COUNT     PERCENT
 -------------------------------------------------------------------------------

 -------------------------------------------------------------------------------
 -                                                                             -
 -                                GRID STATISTICS                              -
 -                                                                             -
 -------------------------------------------------------------------------------
 LP    KERNEL             BACKEND                              COUNT     PERCENT
 6     collocate general  REF                              367971596      40.55%
 6     integrate general  REF                              362086181      39.90%
 4     collocate general  REF                               41557391       4.58%
 4     integrate general  REF                               40891169       4.51%
 5     integrate general  REF                               37043851       4.08%
 5     collocate general  REF                               36996821       4.08%
 7     integrate general  REF                                6254393       0.69%
 3     collocate general  REF                                3875171       0.43%
 3     integrate general  REF                                3845653       0.42%
 2     collocate general  REF                                2303198       0.25%
 2     integrate general  REF                                2262439       0.25%
 0     collocate general  REF                                1228800       0.14%
 1     integrate general  REF                                1179648       0.13%
 -------------------------------------------------------------------------------

 MEMORY| Estimated peak process memory [MiB]                                 420

 -------------------------------------------------------------------------------
 -                                                                             -
 -                         MESSAGE PASSING PERFORMANCE                         -
 -                                                                             -
 -------------------------------------------------------------------------------

 ROUTINE             CALLS      AVE VOLUME [Bytes]
 MP_Group                5
 MP_Bcast             8745                  80888.
 MP_Allreduce        20021                    514.
 MP_Sync             22689
 MP_Alltoall         45639              211162791.
 MP_SendRecv         24480                   2352.
 MP_ISendRecv      2159595                   6632.
 MP_Wait           2327181
 MP_comm_split          50
 MP_ISend           556774                 101439.
 MP_IRecv           557056                 101389.
 MP_Recv              1666                 972664.
 -------------------------------------------------------------------------------


 -------------------------------------------------------------------------------
 -                                                                             -
 -                           R E F E R E N C E S                               -
 -                                                                             -
 -------------------------------------------------------------------------------
 
 CP2K version 2022.1 (Development Version), the CP2K developers group (2022).
 CP2K is freely available from https://www.cp2k.org/ .

 Kuehne,Thomas D.; Iannuzzi,Marcella; Del Ben,Mauro;
 Rybkin,Vladimir V.; Seewald,Patrick; Stein,Frederick; Laino,Teodoro;
 Khaliullin,Rustam Z.; Schuett,Ole; Schiffmann,Florian; Golze,Dorothea;
 Wilhelm,Jan; Chulkov,Sergey; Bani-Hashemian,Mohammad Hossein;
 Weber,Valery; Borstnik,Urban; Taillefumier,Mathieu;
 Jakobovits,Alice Shoshana; Lazzaro,Alfio; Pabst,Hans; Mueller,Tiziano;
 Schade,Robert; Guidon,Manuel; Andermatt,Samuel; Holmberg,Nico;
 Schenter,Gregory K.; Hehn,Anna; Bussy,Augustin; Belleflamme,Fabian;
 Tabacchi,Gloria; Gloess,Andreas; Lass,Michael; Bethune,Iain;
 Mundy,Christopher J.; Plessl,Christian; Watkins,Matt;
 VandeVondele,Joost; Krack,Matthias; Hutter,Juerg. 
 The Journal of Chemical Physics, 152 (19), (2020). 
 CP2K: An electronic structure and molecular dynamics software package -
 Quickstep: Efficient and accurate electronic structure calculations.
 https://doi.org/10.1063/5.0007045

 Goerigk, Lars; Hansen, Andreas; Bauer, Christoph; Ehrlich, Stephan;
 Najibi, Asim; Grimme, Stefan. , 19 (48), (2017). 
 A look at the density functional theory zoo with the advanced GMTKN55 database
 for general main group thermochemistry, kinetics and noncovalent interactions.
 https://doi.org/10.1039/C7CP04913G

 Schuett, Ole; Messmer, Peter; Hutter, Juerg; VandeVondele, Joost. 
 Electronic Structure Calculations on Graphics Processing Units, John
 Wiley & Sons, Ltd, 173-190 (2016). 
 GPU-Accelerated Sparse Matrix-Matrix Multiplication for
 Linear Scaling Density Functional Theory.
 https://doi.org/10.1002/9781118670712.ch8

 Heinecke, A; Henry, G; Hutchinson, M; Pabst, H. 
 Proceedings of Intl. Supercomputing Conference, 981-991 (2016). 
 LIBXSMM: Accelerating Small Matrix Multiplications
 by Runtime Code Generation.
 https://doi.org/10.1109/SC.2016.83

 Borstnik, U; VandeVondele, J; Weber, V; Hutter, J. 
 PARALLEL COMPUTING, 40 (5-6), 47-58 (2014). 
 Sparse matrix multiplication: The distributed block-compressed sparse
 row library.
 https://doi.org/10.1016/j.parco.2014.03.012

 Hutter, J; Iannuzzi, M; Schiffmann, F; VandeVondele, J. 
 WIREs Comput Mol Sci., 4 (1), 15-25 (2014). 
 CP2K: atomistic simulations of condensed matter systems.
 https://doi.org/10.1002/wcms.1159

 Marek, A; Blum, V; Johanni, R; Havu, V; Lang, B; Auckenthaler, T;
 Heinecke, A; Bungartz, H; Lederer, H. 
 Journal of Physics: Condensed Matter, 26 (21), (2014). 
 The ELPA library: scalable parallel eigenvalue solutions for
 electronic structure
 theory and computational science.
 https://doi.org/10.1088/0953-8984/26/21/213201

 Grimme, S; Ehrlich, S; Goerigk, L. 
 JOURNAL OF COMPUTATIONAL CHEMISTRY, 32, 1456 (2011). 
 Effect of the damping function in dispersion corrected density functional theory.
 https://doi.org/10.1002/jcc.21759

 Grimme, S; Antony, J; Ehrlich, S; Krieg, H. 
 JOURNAL OF CHEMICAL PHYSICS, 132 (15), 154104 (2010). 
 A consistent and accurate ab initio parametrization of density
 functional dispersion correction (DFT-D) for the 94 elements H-Pu.
 https://doi.org/10.1063/1.3382344

 VandeVondele, J; Hutter, J. 
 JOURNAL OF CHEMICAL PHYSICS, 127 (11), 114105 (2007). 
 Gaussian basis sets for accurate calculations on molecular systems in
 gas and condensed phases.
 https://doi.org/10.1063/1.2770708

 Kuhne, TD; Krack, M; Mohamed, FR; Parrinello, M. 
 PHYSICAL REVIEW LETTERS, 98 (6), 066401 (2007). 
 Efficient and accurate Car-Parrinello-like approach to
 Born-Oppenheimer molecular dynamics.
 https://doi.org/10.1103/PhysRevLett.98.066401

 Krack, M. 
 THEORETICAL CHEMISTRY ACCOUNTS, 114 (1-3), 145-152 (2005). 
 Pseudopotentials for H to Kr optimized for gradient-corrected
 exchange-correlation functionals.
 https://doi.org/10.1007/s00214-005-0655-y

 VandeVondele, J; Krack, M; Mohamed, F; Parrinello, M; Chassaing, T;
 Hutter, J. COMPUTER PHYSICS COMMUNICATIONS, 167 (2), 103-128 (2005). 
 QUICKSTEP: Fast and accurate density functional calculations using a
 mixed Gaussian and plane waves approach.
 https://doi.org/10.1016/j.cpc.2004.12.014

 Frigo, M; Johnson, SG. 
 PROCEEDINGS OF THE IEEE, 93 (2), 216-231 (2005). 
 The design and implementation of FFTW3.
 https://doi.org/10.1109/JPROC.2004.840301

 Kolafa, J. 
 JOURNAL OF COMPUTATIONAL CHEMISTRY, 25 (3), 335-342 (2004). 
 Time-reversible always stable predictor-corrector method for
 molecular dynamics of polarizable molecules.
 https://doi.org/10.1002/jcc.10385

 VandeVondele, J; Hutter, J. 
 JOURNAL OF CHEMICAL PHYSICS, 118 (10), 4365-4369 (2003). 
 An efficient orbital transformation method for electronic structure
 calculations.
 https://doi.org/10.1063/1.1543154

 Hartwigsen, C; Goedecker, S; Hutter, J. 
 PHYSICAL REVIEW B, 58 (7), 3641-3662 (1998). 
 Relativistic separable dual-space Gaussian pseudopotentials from H to Rn.
 https://doi.org/10.1103/PhysRevB.58.3641

 Lippert, G; Hutter, J; Parrinello, M. 
 MOLECULAR PHYSICS, 92 (3), 477-487 (1997). 
 A hybrid Gaussian and plane wave density functional scheme.
 https://doi.org/10.1080/002689797170220

 Perdew, JP; Burke, K; Ernzerhof, M. 
 PHYSICAL REVIEW LETTERS, 77 (18), 3865-3868 (1996). 
 Generalized gradient approximation made simple.
 https://doi.org/10.1103/PhysRevLett.77.3865

 Goedecker, S; Teter, M; Hutter, J. 
 PHYSICAL REVIEW B, 54 (3), 1703-1710 (1996). 
 Separable dual-space Gaussian pseudopotentials.
 https://doi.org/10.1103/PhysRevB.54.1703


 -------------------------------------------------------------------------------
 -                                                                             -
 -                                T I M I N G                                  -
 -                                                                             -
 -------------------------------------------------------------------------------
 SUBROUTINE                       CALLS  ASD         SELF TIME        TOTAL TIME
                                MAXIMUM       AVERAGE  MAXIMUM  AVERAGE  MAXIMUM
 CP2K                                 1  1.0    0.061    0.097 1840.403 1840.414
 cp_geo_opt                           1  2.0    0.001    0.001 1839.780 1839.791
 geoopt_bfgs                          1  3.0    0.012    0.018 1839.779 1839.790
 cp_eval_at                          25  4.0    0.004    0.006 1836.696 1836.710
 qs_forces                           24  5.0    0.022    0.040 1755.770 1755.780
 qs_energies                         25  6.0    0.008    0.016 1744.884 1744.944
 scf_env_do_scf                      25  7.0    0.003    0.009 1705.311 1705.331
 scf_env_do_scf_inner_loop         1387  8.0    0.035    0.109 1653.996 1655.750
 rebuild_ks_matrix                 1411  9.9    0.009    0.011  829.611  835.522
 qs_ks_build_kohn_sham_matrix      1411 10.9    0.229    0.270  829.602  835.513
 qs_ks_update_qs_env               1444  9.0    0.023    0.028  809.259  815.060
 sum_up_and_integrate              1411 11.9    0.474    0.592  672.947  673.361
 integrate_v_rspace                1411 12.9    0.046    0.076  672.469  672.887
 qs_rho_update_rho_low             1412  9.0    0.012    0.016  549.969  552.042
 calculate_rho_elec                1412 10.0    0.260    0.282  549.957  552.034
 rs_pw_transfer                   14164 13.4    0.207    0.286  404.612  520.730
 grid_integrate_task_list          1411 13.9  301.268  456.271  301.268  456.271
 grid_collocate_task_list          1412 11.0  292.124  412.049  292.124  412.049
 density_rs2pw                     1412 11.0    0.063    0.079  244.690  362.965
 dbcsr_multiply_generic           26070 14.0    0.999    1.132  342.440  360.148
 mp_waitany                      108058 15.4  216.419  357.521  216.419  357.521
 qs_scf_new_mos                    1387  9.0    0.009    0.012  336.038  338.845
 qs_scf_loop_do_ot                 1387 10.0    0.008    0.011  336.029  338.835
 ot_scf_mini                       1387 11.0    0.039    0.054  312.425  315.816
 mp_alltoall_d11v                 15069 15.5  179.309  311.371  179.309  311.371
 rs_gather_matrices                1411 13.9    0.752    1.088  166.206  297.293
 multiply_cannon                  26070 15.0    1.806    2.338  249.275  295.017
 multiply_cannon_loop             26070 16.0    1.781    1.984  235.485  278.602
 rs_pw_transfer_RS2PW_150          1437 12.9   28.274   54.925  144.611  271.006
 ot_mini                           1387 12.0    0.017    0.024  211.780  216.324
 potential_pw2rs                   1411 13.9    0.068    0.089  204.723  205.300
 multiply_cannon_multrec         417120 17.0  139.895  186.420  139.986  186.513
 qs_ot_get_derivative              1387 13.0    0.009    0.014  168.062  171.428
 mp_waitall_1                   5973203 17.1  126.664  163.827  126.664  163.827
 pw_transfer                      29662 14.0    2.202    3.142  135.495  140.270
 fft_wrap_pw1pw2                  26840 15.1    0.267    0.372  132.367  136.832
 fft_wrap_pw1pw2_150              15548 16.6    7.816    8.458  116.600  121.853
 qs_ot_get_derivative_taylor       1363 14.0    0.028    0.040  114.256  117.467
 rs_pw_transfer_PW2RS_150          1435 15.8   69.340   71.787  107.676  110.230
 fft3d_pb                         15548 17.6   26.846   32.201   99.400  104.933
 qs_vxc_create                     1411 11.9    0.047    0.056  103.985  104.851
 xc_vxc_pw_create                  1411 12.9    0.594    0.830  103.938  104.806
 rs_pw_transfer_RS2PW_50           1412 13.0   17.695   24.624   62.011   90.908
 multiply_cannon_metrocomm1      417120 17.0    0.810    0.906   57.650   88.576
 xc_pw_derive                      8466 14.9    0.066    0.076   74.489   78.906
 mp_alltoall_z22v                 42388 19.3   62.554   74.185   62.554   74.185
 build_core_hamiltonian_matrix_      24  6.0    0.001    0.001   64.409   69.810
 rs_pw_transfer_PW2RS_50           1411 15.9   12.100   22.136   62.060   68.374
 multiply_cannon_metrocomm3      417120 17.0    0.711    0.773   18.505   61.311
 build_core_ppnl_forces              24  7.0   55.813   59.250   55.813   59.250
 make_m2s                         52140 15.0    0.625    0.721   53.013   57.256
 mp_sum_l                        124648 15.0   33.667   54.208   33.667   54.208
 xc_rho_set_and_dset_create        1411 13.9    1.211    1.538   52.887   53.913
 xc_pw_divergence                  1411 13.9    0.031    0.040   49.424   52.032
 make_images                      52140 16.0    1.354    1.510   47.070   51.034
 mp_irecv_dv                     882627 17.9   14.426   49.888   14.426   49.888
 init_scf_loop                       57  7.9    0.002    0.002   49.482   49.506
 qs_ot_get_p                       1444 11.9    0.008    0.013   46.108   48.919
 mp_sum_d                         29435 14.2   17.263   45.073   17.263   45.073
 ot_diis_step                      1387 13.0    0.138    0.159   41.715   41.719
 apply_preconditioner_dbcsr        1444 14.0    0.003    0.005   34.235   37.894
 apply_single                      1444 15.0    0.005    0.007   34.231   37.892
 multiply_cannon_metrocomm2      391050 17.0    0.815    0.940   10.573   37.502
 -------------------------------------------------------------------------------

 The number of warnings for this run is : 0
 
 -------------------------------------------------------------------------------
  **** **** ******  **  PROGRAM ENDED AT                 2023-04-19 16:12:45.649
 ***** ** ***  *** **   PROGRAM RAN ON                                 nid001050
 **    ****   ******    PROGRAM RAN BY                                  dpassero
 ***** **    ** ** **   PROGRAM PROCESS ID                                 53053
  **** **  *******  **  PROGRAM STOPPED IN /scratch/e1000/dpassero/MMM_2023/jbac
                                           hmann/grimme_d3/benzene/full
