 DBCSR| CPU Multiplication driver                                           XSMM
 DBCSR| Multrec recursion limit                                              512
 DBCSR| Multiplication stack size                                           1000
 DBCSR| Maximum elements for images                                    UNLIMITED
 DBCSR| Multiplicative factor virtual images                                   1
 DBCSR| Use multiplication densification                                       T
 DBCSR| Multiplication size stacks                                             3
 DBCSR| Use memory pool for CPU allocation                                     F
 DBCSR| Number of 3D layers                                               SINGLE
 DBCSR| Use MPI memory allocation                                              F
 DBCSR| Use RMA algorithm                                                      F
 DBCSR| Use Communication thread                                               T
 DBCSR| Communication thread load                                             87
 DBCSR| MPI: My node id                                                        0
 DBCSR| MPI: Number of nodes                                                 256
 DBCSR| OMP: Current number of threads                                         1
 DBCSR| OMP: Max number of threads                                             1
 DBCSR| Split modifier for TAS multiplication algorithm                  1.0E+00


  **** **** ******  **  PROGRAM STARTED AT               2023-04-19 15:45:03.424
 ***** ** ***  *** **   PROGRAM STARTED ON                             nid001028
 **    ****   ******    PROGRAM STARTED BY                              dpassero
 ***** **    ** ** **   PROGRAM PROCESS ID                                 32460
  **** **  *******  **  PROGRAM STARTED IN /scratch/e1000/dpassero/MMM_2023/jbac
                                           hmann/grimme_d3/methane/full

 CP2K| version string:                 CP2K version 2022.1 (Development Version)
 CP2K| source code revision number:                                  git:4ddb46c
 CP2K| cp2kflags: omp libint fftw3 libxc elpa parallel mpi3 scalapack xsmm max_c
 CP2K|            ontr=4 plumed2 spglib
 CP2K| is freely available from                            https://www.cp2k.org/
 CP2K| Program compiled at                      Wed 14 Sep 2022 12:18:41 PM CEST
 CP2K| Program compiled on                                             nid001080
 CP2K| Program compiled for                                 Eiger-gfortran_May22
 CP2K| Data directory path         /users/mmi/DEV/CP2K/trunk_new/eiger/cp2k/data
 CP2K| Input file name        /scratch/e1000/dpassero/MMM_2023/jbachmann/grimme_

 GLOBAL| Force Environment number                                              1
 GLOBAL| Basis set file name                                        BASIS_MOLOPT
 GLOBAL| Potential file name                                           POTENTIAL
 GLOBAL| MM Potential file name                                     MM_POTENTIAL
 GLOBAL| Coordinate file name                                  methane_on_pt.xyz
 GLOBAL| Method name                                                        CP2K
 GLOBAL| Project name                                              methane_on_pt
 GLOBAL| Run type                                                        GEO_OPT
 GLOBAL| FFT library                                                       FFTW3
 GLOBAL| Diagonalization library                                            ELPA
 GLOBAL| DGEMM library                                                      BLAS
 GLOBAL| Minimum number of eigenvectors for ELPA usage                        16
 GLOBAL| Orthonormality check for eigenvectors                          DISABLED
 GLOBAL| Matrix multiplication library                                 ScaLAPACK
 GLOBAL| All-to-all communication in single precision                          F
 GLOBAL| FFTs using library dependent lengths                                  T
 GLOBAL| Grid backend                                                       AUTO
 GLOBAL| Global print level                                                  LOW
 GLOBAL| MPI I/O enabled                                                       T
 GLOBAL| Total number of message passing processes                           256
 GLOBAL| Number of threads for this process                                    1
 GLOBAL| This output is from process                                           0
 GLOBAL| Stack size for threads created by OpenMP (OMP_STACKSIZE)           100M
 GLOBAL| CPU model name                          AMD EPYC 7742 64-Core Processor
 GLOBAL| CPUID                                                              1002

 MEMORY| system memory details [Kb]
 MEMORY|                        rank 0           min           max       average
 MEMORY| MemTotal            263506204     263506204     263506204     263506204
 MEMORY| MemFree             230165824     227855092     230165824     229010458
 MEMORY| Buffers                100352        100352        399164        249758
 MEMORY| Cached                5691324       5691324       7466064       6578694
 MEMORY| Slab                  7816560       7816560       8205804       8011182
 MEMORY| SReclaimable           518996        518996        743620        631308
 MEMORY| MemLikelyFree       236476496     236463940     236476496     236470218


 GENERATE|  Preliminary Number of Bonds generated:                             0
 GENERATE|  Achieved consistency in connectivity generation.

 *******************************************************************************
 *******************************************************************************
 **                                                                           **
 **     #####                         ##              ##                      **
 **    ##   ##            ##          ##              ##                      **
 **   ##     ##                       ##            ######                    **
 **   ##     ##  ##   ##  ##   #####  ##  ##   ####   ##    #####    #####    **
 **   ##     ##  ##   ##  ##  ##      ## ##   ##      ##   ##   ##  ##   ##   **
 **   ##  ## ##  ##   ##  ##  ##      ####     ###    ##   ######   ######    **
 **    ##  ###   ##   ##  ##  ##      ## ##      ##   ##   ##       ##        **
 **     #######   #####   ##   #####  ##  ##  ####    ##    #####   ##        **
 **           ##                                                    ##        **
 **                                                                           **
 **                                                ... make the atoms dance   **
 **                                                                           **
 **            Copyright (C) by CP2K developers group (2000-2022)             **
 **                      J. Chem. Phys. 152, 194103 (2020)                    **
 **                                                                           **
 *******************************************************************************


 TOTAL NUMBERS AND MAXIMUM NUMBERS

  Total number of            - Atomic kinds:                                   3
                             - Atoms:                                        185
                             - Shell sets:                                   185
                             - Shells:                                      1457
                             - Primitive Cartesian functions:               1115
                             - Cartesian basis functions:                   5614
                             - Spherical basis functions:                   4713

  Maximum angular momentum of- Orbital basis functions:                        3
                             - Local part of the GTH pseudopotential:          2
                             - Non-local part of the GTH pseudopotential:      5


 SCF PARAMETERS         Density guess:                                   RESTART
                        --------------------------------------------------------
                        max_scf:                                              30
                        max_scf_history:                                       0
                        max_diis:                                              4
                        --------------------------------------------------------
                        eps_scf:                                        1.00E-06
                        eps_scf_history:                                0.00E+00
                        eps_diis:                                       1.00E-01
                        eps_eigval:                                     1.00E-05
                        --------------------------------------------------------
                        level_shift [a.u.]:                             0.000000
                        --------------------------------------------------------
                        Outer loop SCF in use 
                        No variables optimised in outer loop
                        eps_scf                                         1.00E-06
                        max_scf                                               20
                        No outer loop optimization
                        step_size                                       5.00E-01

 BFGS| Use rational function optimization for step estimation:                NO
 BFGS| Use model Hessian for initial guess:                                  YES
 BFGS| Restart Hessian:                                                       NO
 BFGS| Trust radius:                                                       0.100

 *******************************************************************************
 ***                     STARTING GEOMETRY OPTIMIZATION                      ***
 ***                                   BFGS                                  ***
 *******************************************************************************

 Number of electrons:                                                       3248
 Number of occupied orbitals:                                               1624
 Number of molecular orbitals:                                              1624

 Number of orbital functions:                                               4713
 Number of independent orbital functions:                                   4713

 Extrapolation method: initial_guess


 SCF WAVEFUNCTION OPTIMIZATION

  ----------------------------------- OT ---------------------------------------
  Minimizer      : DIIS                : direct inversion
                                         in the iterative subspace
                                         using   7 DIIS vectors
                                         safer DIIS on
  Preconditioner : FULL_KINETIC        : inversion of T + eS
  Precond_solver : DEFAULT
  stepsize       :    0.15000000                  energy_gap     :    0.20000000
  eps_taylor     :   0.10000E-15                  max_taylor     :             4
  ----------------------------------- OT ---------------------------------------

  Step     Update method      Time    Convergence         Total energy    Change
  ------------------------------------------------------------------------------
     1 OT DIIS     0.15E+00    1.1     0.00049817    -21644.3260769881 -2.16E+04
     2 OT DIIS     0.15E+00    1.2     0.00026865    -21644.5262628597 -2.00E-01
     3 OT DIIS     0.15E+00    1.2     0.00019260    -21644.6002842021 -7.40E-02
     4 OT DIIS     0.15E+00    1.2     0.00015676    -21644.6331966889 -3.29E-02
     5 OT DIIS     0.15E+00    1.2     0.00012038    -21644.6504829236 -1.73E-02
     6 OT DIIS     0.15E+00    1.2     0.00007948    -21644.6642982054 -1.38E-02
     7 OT DIIS     0.15E+00    1.2     0.00006287    -21644.6708056923 -6.51E-03
     8 OT DIIS     0.15E+00    1.2     0.00005274    -21644.6779835326 -7.18E-03
     9 OT DIIS     0.15E+00    1.2     0.00004598    -21644.6827225512 -4.74E-03
    10 OT DIIS     0.15E+00    1.2     0.00003626    -21644.6880014857 -5.28E-03
    11 OT DIIS     0.15E+00    1.2     0.00003186    -21644.6909044208 -2.90E-03
    12 OT DIIS     0.15E+00    1.2     0.00002872    -21644.6933937748 -2.49E-03
    13 OT DIIS     0.15E+00    1.4     0.00002606    -21644.6956251439 -2.23E-03
    14 OT DIIS     0.15E+00    1.4     0.00002383    -21644.6976878269 -2.06E-03
    15 OT DIIS     0.15E+00    1.4     0.00002207    -21644.6991724981 -1.48E-03
    16 OT DIIS     0.15E+00    1.4     0.00001976    -21644.7004802007 -1.31E-03
    17 OT DIIS     0.15E+00    1.4     0.00001802    -21644.7017543101 -1.27E-03
    18 OT DIIS     0.15E+00    1.4     0.00001691    -21644.7027230558 -9.69E-04
    19 OT DIIS     0.15E+00    1.4     0.00001587    -21644.7035912150 -8.68E-04
    20 OT DIIS     0.15E+00    1.4     0.00001479    -21644.7043792771 -7.88E-04
    21 OT DIIS     0.15E+00    1.4     0.00001402    -21644.7052562198 -8.77E-04
    22 OT DIIS     0.15E+00    1.4     0.00001330    -21644.7059808182 -7.25E-04
    23 OT DIIS     0.15E+00    1.4     0.00001293    -21644.7066062995 -6.25E-04
    24 OT DIIS     0.15E+00    1.4     0.00001231    -21644.7071291578 -5.23E-04
    25 OT DIIS     0.15E+00    1.4     0.00001166    -21644.7076680020 -5.39E-04
    26 OT DIIS     0.15E+00    1.4     0.00001115    -21644.7083475602 -6.80E-04
    27 OT DIIS     0.15E+00    1.4     0.00001073    -21644.7088872706 -5.40E-04
    28 OT DIIS     0.15E+00    1.4     0.00001010    -21644.7094561596 -5.69E-04
    29 OT DIIS     0.15E+00    1.4     0.00000965    -21644.7100164539 -5.60E-04
    30 OT DIIS     0.15E+00    1.4     0.00000932    -21644.7105152756 -4.99E-04

  Leaving inner SCF loop after reaching    30 steps.


  Electronic density on regular grids:      -3247.9999999981        0.0000000019
  Core density on regular grids:             3247.9999999999       -0.0000000001
  Total charge density on r-space grids:        0.0000000018
  Total charge density g-space grids:           0.0000000018

  Overlap energy of the core charge distribution:               0.00000128249918
  Self energy of the core charge distribution:             -32922.51341626739304
  Core Hamiltonian energy:                                   7319.61881364133296
  Hartree energy:                                            6073.83210329307985
  Exchange-correlation energy:                              -2111.66120139069108
  Dispersion energy:                                           -3.98681583442603

  Total energy:                                            -21644.71051527560121

  outer SCF iter =    1 RMS gradient =   0.93E-05 energy =     -21644.7105152756

  ----------------------------------- OT ---------------------------------------
  Minimizer      : DIIS                : direct inversion
                                         in the iterative subspace
                                         using   7 DIIS vectors
                                         safer DIIS on
  Preconditioner : FULL_KINETIC        : inversion of T + eS
  Precond_solver : DEFAULT
  stepsize       :    0.15000000                  energy_gap     :    0.20000000
  eps_taylor     :   0.10000E-15                  max_taylor     :             4
  ----------------------------------- OT ---------------------------------------

  Step     Update method      Time    Convergence         Total energy    Change
  ------------------------------------------------------------------------------
     1 OT DIIS     0.15E+00    2.9     0.00000907    -21644.7110241643 -5.09E-04
     2 OT DIIS     0.15E+00    1.2     0.00001061    -21644.7111000445 -7.59E-05
     3 OT DIIS     0.15E+00    1.1     0.00000829    -21644.7111348542 -3.48E-05
     4 OT DIIS     0.15E+00    1.2     0.00000820    -21644.7112634857 -1.29E-04
     5 OT DIIS     0.15E+00    1.2     0.00000764    -21644.7117295600 -4.66E-04
     6 OT DIIS     0.15E+00    1.2     0.00000751    -21644.7118636348 -1.34E-04
     7 OT DIIS     0.15E+00    1.2     0.00000728    -21644.7122938502 -4.30E-04
     8 OT DIIS     0.15E+00    1.2     0.00000681    -21644.7129182866 -6.24E-04
     9 OT DIIS     0.15E+00    1.2     0.00000660    -21644.7133564032 -4.38E-04
    10 OT DIIS     0.15E+00    1.2     0.00000638    -21644.7136549014 -2.98E-04
    11 OT DIIS     0.15E+00    1.2     0.00000619    -21644.7142024345 -5.48E-04
    12 OT DIIS     0.15E+00    1.2     0.00000560    -21644.7147676827 -5.65E-04
    13 OT DIIS     0.15E+00    1.2     0.00000541    -21644.7150610630 -2.93E-04
    14 OT DIIS     0.15E+00    1.2     0.00000525    -21644.7152433719 -1.82E-04
    15 OT DIIS     0.15E+00    1.2     0.00000503    -21644.7155530751 -3.10E-04
    16 OT DIIS     0.15E+00    1.2     0.00000468    -21644.7158504225 -2.97E-04
    17 OT DIIS     0.15E+00    1.2     0.00000454    -21644.7160107447 -1.60E-04
    18 OT DIIS     0.15E+00    1.2     0.00000440    -21644.7161171302 -1.06E-04
    19 OT DIIS     0.15E+00    1.2     0.00000430    -21644.7162327595 -1.16E-04
    20 OT DIIS     0.15E+00    1.2     0.00000414    -21644.7163358174 -1.03E-04
    21 OT DIIS     0.15E+00    1.2     0.00000408    -21644.7163974469 -6.16E-05
    22 OT DIIS     0.15E+00    1.2     0.00000402    -21644.7164306860 -3.32E-05
    23 OT DIIS     0.15E+00    1.2     0.00000395    -21644.7164932268 -6.25E-05
    24 OT DIIS     0.15E+00    1.2     0.00000387    -21644.7165493904 -5.62E-05
    25 OT DIIS     0.15E+00    1.2     0.00000383    -21644.7165884239 -3.90E-05
    26 OT DIIS     0.15E+00    1.2     0.00000381    -21644.7166151748 -2.68E-05
    27 OT DIIS     0.15E+00    1.2     0.00000378    -21644.7166576633 -4.25E-05
    28 OT DIIS     0.15E+00    1.2     0.00000374    -21644.7167060707 -4.84E-05
    29 OT DIIS     0.15E+00    1.2     0.00000372    -21644.7167500786 -4.40E-05
    30 OT DIIS     0.15E+00    1.2     0.00000370    -21644.7167869583 -3.69E-05

  Leaving inner SCF loop after reaching    30 steps.


  Electronic density on regular grids:      -3248.0000000295       -0.0000000295
  Core density on regular grids:             3247.9999999999       -0.0000000001
  Total charge density on r-space grids:       -0.0000000296
  Total charge density g-space grids:          -0.0000000296

  Overlap energy of the core charge distribution:               0.00000128249918
  Self energy of the core charge distribution:             -32922.51341626739304
  Core Hamiltonian energy:                                   7319.52280088396219
  Hartree energy:                                            6073.89911107309308
  Exchange-correlation energy:                              -2111.63846809602046
  Dispersion energy:                                           -3.98681583442603

  Total energy:                                            -21644.71678695828814

  outer SCF iter =    2 RMS gradient =   0.37E-05 energy =     -21644.7167869583

  ----------------------------------- OT ---------------------------------------
  Minimizer      : DIIS                : direct inversion
                                         in the iterative subspace
                                         using   7 DIIS vectors
                                         safer DIIS on
  Preconditioner : FULL_KINETIC        : inversion of T + eS
  Precond_solver : DEFAULT
  stepsize       :    0.15000000                  energy_gap     :    0.20000000
  eps_taylor     :   0.10000E-15                  max_taylor     :             4
  ----------------------------------- OT ---------------------------------------

  Step     Update method      Time    Convergence         Total energy    Change
  ------------------------------------------------------------------------------
     1 OT DIIS     0.15E+00    2.7     0.00000366    -21644.7168760832 -8.91E-05
     2 OT DIIS     0.15E+00    1.2     0.00000371    -21644.7168910936 -1.50E-05
     3 OT DIIS     0.15E+00    1.2     0.00000361    -21644.7168970147 -5.92E-06
     4 OT DIIS     0.15E+00    1.2     0.00000360    -21644.7169322863 -3.53E-05
     5 OT DIIS     0.15E+00    1.2     0.00000353    -21644.7170454771 -1.13E-04
     6 OT DIIS     0.15E+00    1.2     0.00000349    -21644.7170932891 -4.78E-05
     7 OT DIIS     0.15E+00    1.2     0.00000343    -21644.7172979787 -2.05E-04
     8 OT DIIS     0.15E+00    1.2     0.00000314    -21644.7178346187 -5.37E-04
     9 OT DIIS     0.15E+00    1.2     0.00000307    -21644.7180632956 -2.29E-04
    10 OT DIIS     0.15E+00    1.2     0.00000292    -21644.7182634330 -2.00E-04
    11 OT DIIS     0.15E+00    1.2     0.00000276    -21644.7186883145 -4.25E-04
    12 OT DIIS     0.15E+00    1.2     0.00000245    -21644.7190383992 -3.50E-04
    13 OT DIIS     0.15E+00    1.2     0.00000239    -21644.7191172576 -7.89E-05
    14 OT DIIS     0.15E+00    1.2     0.00000234    -21644.7191568260 -3.96E-05
    15 OT DIIS     0.15E+00    1.2     0.00000232    -21644.7191882579 -3.14E-05
    16 OT DIIS     0.15E+00    1.2     0.00000226    -21644.7192295284 -4.13E-05
    17 OT DIIS     0.15E+00    1.2     0.00000223    -21644.7192697319 -4.02E-05
    18 OT DIIS     0.15E+00    1.2     0.00000221    -21644.7192991522 -2.94E-05
    19 OT DIIS     0.15E+00    1.2     0.00000219    -21644.7193125434 -1.34E-05
    20 OT DIIS     0.15E+00    1.2     0.00000216    -21644.7193417225 -2.92E-05
    21 OT DIIS     0.15E+00    1.2     0.00000215    -21644.7193629724 -2.12E-05
    22 OT DIIS     0.15E+00    1.2     0.00000214    -21644.7193724282 -9.46E-06
    23 OT DIIS     0.15E+00    1.2     0.00000213    -21644.7193865096 -1.41E-05
    24 OT DIIS     0.15E+00    1.2     0.00000213    -21644.7194047991 -1.83E-05
    25 OT DIIS     0.15E+00    1.2     0.00000211    -21644.7194324663 -2.77E-05
    26 OT DIIS     0.15E+00    1.2     0.00000211    -21644.7194635118 -3.10E-05
    27 OT DIIS     0.15E+00    1.2     0.00000209    -21644.7194938873 -3.04E-05
    28 OT DIIS     0.15E+00    1.2     0.00000207    -21644.7195491362 -5.52E-05
    29 OT DIIS     0.15E+00    1.2     0.00000207    -21644.7195964783 -4.73E-05
    30 OT DIIS     0.15E+00    1.2     0.00000205    -21644.7196619275 -6.54E-05

  Leaving inner SCF loop after reaching    30 steps.


  Electronic density on regular grids:      -3248.0000000142       -0.0000000142
  Core density on regular grids:             3247.9999999999       -0.0000000001
  Total charge density on r-space grids:       -0.0000000143
  Total charge density g-space grids:          -0.0000000143

  Overlap energy of the core charge distribution:               0.00000128249918
  Self energy of the core charge distribution:             -32922.51341626739304
  Core Hamiltonian energy:                                   7319.47835484238203
  Hartree energy:                                            6073.92911312609158
  Exchange-correlation energy:                              -2111.62689907667163
  Dispersion energy:                                           -3.98681583442603

  Total energy:                                            -21644.71966192752370

  outer SCF iter =    3 RMS gradient =   0.21E-05 energy =     -21644.7196619275

  ----------------------------------- OT ---------------------------------------
  Minimizer      : DIIS                : direct inversion
                                         in the iterative subspace
                                         using   7 DIIS vectors
                                         safer DIIS on
  Preconditioner : FULL_KINETIC        : inversion of T + eS
  Precond_solver : DEFAULT
  stepsize       :    0.15000000                  energy_gap     :    0.20000000
  eps_taylor     :   0.10000E-15                  max_taylor     :             4
  ----------------------------------- OT ---------------------------------------

  Step     Update method      Time    Convergence         Total energy    Change
  ------------------------------------------------------------------------------
     1 OT DIIS     0.15E+00    2.7     0.00000202    -21644.7197246993 -6.28E-05
     2 OT DIIS     0.15E+00    1.2     0.00000210    -21644.7197291728 -4.47E-06
     3 OT DIIS     0.15E+00    1.2     0.00000198    -21644.7197308076 -1.63E-06
     4 OT DIIS     0.15E+00    1.1     0.00000198    -21644.7197378921 -7.08E-06
     5 OT DIIS     0.15E+00    1.1     0.00000195    -21644.7197639060 -2.60E-05
     6 OT DIIS     0.15E+00    1.1     0.00000194    -21644.7197719457 -8.04E-06
     7 OT DIIS     0.15E+00    1.2     0.00000194    -21644.7197965679 -2.46E-05
     8 OT DIIS     0.15E+00    1.2     0.00000191    -21644.7198609056 -6.43E-05
     9 OT DIIS     0.15E+00    1.2     0.00000191    -21644.7198858326 -2.49E-05
    10 OT DIIS     0.15E+00    1.2     0.00000190    -21644.7199131727 -2.73E-05
    11 OT DIIS     0.15E+00    1.2     0.00000189    -21644.7199736782 -6.05E-05
    12 OT DIIS     0.15E+00    1.2     0.00000186    -21644.7200795891 -1.06E-04
    13 OT DIIS     0.15E+00    1.2     0.00000185    -21644.7201331386 -5.35E-05
    14 OT DIIS     0.15E+00    1.2     0.00000183    -21644.7201797086 -4.66E-05
    15 OT DIIS     0.15E+00    1.2     0.00000182    -21644.7202384671 -5.88E-05
    16 OT DIIS     0.15E+00    1.2     0.00000179    -21644.7203639480 -1.25E-04
    17 OT DIIS     0.15E+00    1.2     0.00000176    -21644.7204389094 -7.50E-05
    18 OT DIIS     0.15E+00    2.9     0.00000173    -21644.7205190010 -8.01E-05
    19 OT DIIS     0.15E+00    1.2     0.00000172    -21644.7205728116 -5.38E-05
    20 OT DIIS     0.15E+00    1.2     0.00000168    -21644.7206490005 -7.62E-05
    21 OT DIIS     0.15E+00    1.2     0.00000166    -21644.7206875707 -3.86E-05
    22 OT DIIS     0.15E+00    1.2     0.00000165    -21644.7207166040 -2.90E-05
    23 OT DIIS     0.15E+00    1.2     0.00000164    -21644.7207283580 -1.18E-05
    24 OT DIIS     0.15E+00    1.2     0.00000163    -21644.7207511052 -2.27E-05
    25 OT DIIS     0.15E+00    1.2     0.00000162    -21644.7207599036 -8.80E-06
    26 OT DIIS     0.15E+00    1.2     0.00000161    -21644.7207730595 -1.32E-05
    27 OT DIIS     0.15E+00    1.2     0.00000161    -21644.7207765412 -3.48E-06
    28 OT DIIS     0.15E+00    1.2     0.00000159    -21644.7207895266 -1.30E-05
    29 OT DIIS     0.15E+00    1.2     0.00000159    -21644.7207964794 -6.95E-06
    30 OT DIIS     0.15E+00    1.2     0.00000159    -21644.7208049125 -8.43E-06

  Leaving inner SCF loop after reaching    30 steps.


  Electronic density on regular grids:      -3247.9999999996        0.0000000004
  Core density on regular grids:             3247.9999999999       -0.0000000001
  Total charge density on r-space grids:        0.0000000003
  Total charge density g-space grids:           0.0000000003

  Overlap energy of the core charge distribution:               0.00000128249918
  Self energy of the core charge distribution:             -32922.51341626739304
  Core Hamiltonian energy:                                   7319.44315837838894
  Hartree energy:                                            6073.95422866783974
  Exchange-correlation energy:                              -2111.61796113939226
  Dispersion energy:                                           -3.98681583442603

  Total energy:                                            -21644.72080491248562

  outer SCF iter =    4 RMS gradient =   0.16E-05 energy =     -21644.7208049125

  ----------------------------------- OT ---------------------------------------
  Minimizer      : DIIS                : direct inversion
                                         in the iterative subspace
                                         using   7 DIIS vectors
                                         safer DIIS on
  Preconditioner : FULL_KINETIC        : inversion of T + eS
  Precond_solver : DEFAULT
  stepsize       :    0.15000000                  energy_gap     :    0.20000000
  eps_taylor     :   0.10000E-15                  max_taylor     :             4
  ----------------------------------- OT ---------------------------------------

  Step     Update method      Time    Convergence         Total energy    Change
  ------------------------------------------------------------------------------
     1 OT DIIS     0.15E+00    2.7     0.00000158    -21644.7208100543 -5.14E-06
     2 OT DIIS     0.15E+00    1.2     0.00000159    -21644.7208129003 -2.85E-06
     3 OT DIIS     0.15E+00    1.2     0.00000157    -21644.7208139046 -1.00E-06
     4 OT DIIS     0.15E+00    1.2     0.00000157    -21644.7208203606 -6.46E-06
     5 OT DIIS     0.15E+00    1.2     0.00000156    -21644.7208476593 -2.73E-05
     6 OT DIIS     0.15E+00    1.2     0.00000156    -21644.7208595281 -1.19E-05
     7 OT DIIS     0.15E+00    1.2     0.00000156    -21644.7209097751 -5.02E-05
     8 OT DIIS     0.15E+00    1.2     0.00000152    -21644.7210304937 -1.21E-04
     9 OT DIIS     0.15E+00    1.2     0.00000151    -21644.7211070660 -7.66E-05
    10 OT DIIS     0.15E+00    1.2     0.00000149    -21644.7211983753 -9.13E-05
    11 OT DIIS     0.15E+00    1.2     0.00000146    -21644.7215149436 -3.17E-04
    12 OT DIIS     0.15E+00    1.2     0.00000139    -21644.7217187467 -2.04E-04
    13 OT DIIS     0.15E+00    1.2     0.00000135    -21644.7217928370 -7.41E-05
    14 OT DIIS     0.15E+00    1.2     0.00000133    -21644.7218991076 -1.06E-04
    15 OT DIIS     0.15E+00    1.2     0.00000129    -21644.7220307486 -1.32E-04
    16 OT DIIS     0.15E+00    1.2     0.00000123    -21644.7221947813 -1.64E-04
    17 OT DIIS     0.15E+00    1.2     0.00000119    -21644.7222946017 -9.98E-05
    18 OT DIIS     0.15E+00    1.2     0.00000115    -21644.7223705787 -7.60E-05
    19 OT DIIS     0.15E+00    1.2     0.00000114    -21644.7223935830 -2.30E-05
    20 OT DIIS     0.15E+00    1.2     0.00000112    -21644.7224170047 -2.34E-05
    21 OT DIIS     0.15E+00    1.2     0.00000111    -21644.7224451121 -2.81E-05
    22 OT DIIS     0.15E+00    1.2     0.00000110    -21644.7224730433 -2.79E-05
    23 OT DIIS     0.15E+00    1.2     0.00000108    -21644.7225081086 -3.51E-05
    24 OT DIIS     0.15E+00    1.2     0.00000107    -21644.7225212881 -1.32E-05
    25 OT DIIS     0.15E+00    1.2     0.00000105    -21644.7225629666 -4.17E-05
    26 OT DIIS     0.15E+00    1.2     0.00000105    -21644.7225827440 -1.98E-05
    27 OT DIIS     0.15E+00    1.2     0.00000104    -21644.7226019777 -1.92E-05
    28 OT DIIS     0.15E+00    1.2     0.00000103    -21644.7226352154 -3.32E-05
    29 OT DIIS     0.15E+00    1.2     0.00000102    -21644.7226567646 -2.15E-05
    30 OT DIIS     0.15E+00    1.2     0.00000101    -21644.7226771176 -2.04E-05

  Leaving inner SCF loop after reaching    30 steps.


  Electronic density on regular grids:      -3248.0000007042       -0.0000007042
  Core density on regular grids:             3247.9999999999       -0.0000000001
  Total charge density on r-space grids:       -0.0000007043
  Total charge density g-space grids:          -0.0000007043

  Overlap energy of the core charge distribution:               0.00000128249918
  Self energy of the core charge distribution:             -32922.51341626739304
  Core Hamiltonian energy:                                   7319.36405052537702
  Hartree energy:                                            6074.01100355064682
  Exchange-correlation energy:                              -2111.59750037435106
  Dispersion energy:                                           -3.98681583442603

  Total energy:                                            -21644.72267711764653

  outer SCF iter =    5 RMS gradient =   0.10E-05 energy =     -21644.7226771176

  ----------------------------------- OT ---------------------------------------
  Minimizer      : DIIS                : direct inversion
                                         in the iterative subspace
                                         using   7 DIIS vectors
                                         safer DIIS on
  Preconditioner : FULL_KINETIC        : inversion of T + eS
  Precond_solver : DEFAULT
  stepsize       :    0.15000000                  energy_gap     :    0.20000000
  eps_taylor     :   0.10000E-15                  max_taylor     :             4
  ----------------------------------- OT ---------------------------------------

  Step     Update method      Time    Convergence         Total energy    Change
  ------------------------------------------------------------------------------
     1 OT DIIS     0.15E+00    2.6     0.00000100    -21644.7226976924 -2.06E-05

  *** SCF run converged in     1 steps ***


  Electronic density on regular grids:      -3248.0000007749       -0.0000007749
  Core density on regular grids:             3247.9999999999       -0.0000000001
  Total charge density on r-space grids:       -0.0000007750
  Total charge density g-space grids:          -0.0000007750

  Overlap energy of the core charge distribution:               0.00000128249918
  Self energy of the core charge distribution:             -32922.51341626739304
  Core Hamiltonian energy:                                   7319.36298313286898
  Hartree energy:                                            6074.01177610560990
  Exchange-correlation energy:                              -2111.59722611150983
  Dispersion energy:                                           -3.98681583442603

  Total energy:                                            -21644.72269769235209

  outer SCF iter =    6 RMS gradient =   0.10E-05 energy =     -21644.7226976924
  outer SCF loop converged in   6 iterations or  151 steps


 ENERGY| Total FORCE_EVAL ( QS ) energy [a.u.]:           -21644.722698871875764

 --------  Informations at step =     0 ------------
  Optimization Method        =                 BFGS
  Total Energy               =    -21644.7226988719
  Used time                  =              192.050
 ---------------------------------------------------

 --------------------------
 OPTIMIZATION STEP:      1
 --------------------------

  Step is scaled; Scaling factor =  0.50524

 Number of electrons:                                                       3248
 Number of occupied orbitals:                                               1624
 Number of molecular orbitals:                                              1624

 Number of orbital functions:                                               4713
 Number of independent orbital functions:                                   4713

 Extrapolation method: ASPC


 SCF WAVEFUNCTION OPTIMIZATION

  ----------------------------------- OT ---------------------------------------
  Minimizer      : DIIS                : direct inversion
                                         in the iterative subspace
                                         using   7 DIIS vectors
                                         safer DIIS on
  Preconditioner : FULL_KINETIC        : inversion of T + eS
  Precond_solver : DEFAULT
  stepsize       :    0.15000000                  energy_gap     :    0.20000000
  eps_taylor     :   0.10000E-15                  max_taylor     :             4
  ----------------------------------- OT ---------------------------------------

  Step     Update method      Time    Convergence         Total energy    Change
  ------------------------------------------------------------------------------
     1 OT DIIS     0.15E+00    1.1     0.00003628    -21644.7353561262 -2.16E+04
     2 OT DIIS     0.15E+00    1.2     0.00002147    -21644.7363194480 -9.63E-04
     3 OT DIIS     0.15E+00    1.2     0.00001719    -21644.7366331298 -3.14E-04
     4 OT DIIS     0.15E+00    1.2     0.00001466    -21644.7368567640 -2.24E-04
     5 OT DIIS     0.15E+00    1.2     0.00000915    -21644.7369969157 -1.40E-04
     6 OT DIIS     0.15E+00    1.2     0.00000785    -21644.7370983800 -1.01E-04
     7 OT DIIS     0.15E+00    1.2     0.00000581    -21644.7371635060 -6.51E-05
     8 OT DIIS     0.15E+00    1.2     0.00000505    -21644.7372303324 -6.68E-05
     9 OT DIIS     0.15E+00    1.2     0.00000408    -21644.7372776137 -4.73E-05
    10 OT DIIS     0.15E+00    1.2     0.00000372    -21644.7373179673 -4.04E-05
    11 OT DIIS     0.15E+00    1.2     0.00000333    -21644.7373464796 -2.85E-05
    12 OT DIIS     0.15E+00    1.2     0.00000299    -21644.7373829330 -3.65E-05
    13 OT DIIS     0.15E+00    1.2     0.00000276    -21644.7374075343 -2.46E-05
    14 OT DIIS     0.15E+00    1.2     0.00000259    -21644.7374290137 -2.15E-05
    15 OT DIIS     0.15E+00    1.2     0.00000245    -21644.7374471652 -1.82E-05
    16 OT DIIS     0.15E+00    1.2     0.00000230    -21644.7374671338 -2.00E-05
    17 OT DIIS     0.15E+00    1.2     0.00000218    -21644.7374861692 -1.90E-05
    18 OT DIIS     0.15E+00    1.2     0.00000206    -21644.7375022395 -1.61E-05
    19 OT DIIS     0.15E+00    1.2     0.00000196    -21644.7375183742 -1.61E-05
    20 OT DIIS     0.15E+00    1.2     0.00000188    -21644.7375324311 -1.41E-05
    21 OT DIIS     0.15E+00    1.2     0.00000182    -21644.7375465587 -1.41E-05
    22 OT DIIS     0.15E+00    1.2     0.00000176    -21644.7375592253 -1.27E-05
    23 OT DIIS     0.15E+00    1.2     0.00000173    -21644.7375709672 -1.17E-05
    24 OT DIIS     0.15E+00    1.2     0.00000166    -21644.7375846050 -1.36E-05
    25 OT DIIS     0.15E+00    1.2     0.00000163    -21644.7375966626 -1.21E-05
    26 OT DIIS     0.15E+00    1.2     0.00000157    -21644.7376095958 -1.29E-05
    27 OT DIIS     0.15E+00    1.2     0.00000152    -21644.7376224248 -1.28E-05
    28 OT DIIS     0.15E+00    1.2     0.00000148    -21644.7376351935 -1.28E-05
    29 OT DIIS     0.15E+00    1.2     0.00000144    -21644.7376487904 -1.36E-05
    30 OT DIIS     0.15E+00    1.2     0.00000142    -21644.7376601528 -1.14E-05

  Leaving inner SCF loop after reaching    30 steps.


  Electronic density on regular grids:      -3248.0000000006       -0.0000000006
  Core density on regular grids:             3248.0000000000        0.0000000000
  Total charge density on r-space grids:       -0.0000000005
  Total charge density g-space grids:          -0.0000000005

  Overlap energy of the core charge distribution:               0.00000104397561
  Self energy of the core charge distribution:             -32922.51341626739304
  Core Hamiltonian energy:                                   7318.91833264004072
  Hartree energy:                                            6074.28931434019614
  Exchange-correlation energy:                              -2111.44934250566257
  Dispersion energy:                                           -3.98254940391993

  Total energy:                                            -21644.73766015276124

  outer SCF iter =    1 RMS gradient =   0.14E-05 energy =     -21644.7376601528

  ----------------------------------- OT ---------------------------------------
  Minimizer      : DIIS                : direct inversion
                                         in the iterative subspace
                                         using   7 DIIS vectors
                                         safer DIIS on
  Preconditioner : FULL_KINETIC        : inversion of T + eS
  Precond_solver : DEFAULT
  stepsize       :    0.15000000                  energy_gap     :    0.20000000
  eps_taylor     :   0.10000E-15                  max_taylor     :             4
  ----------------------------------- OT ---------------------------------------

  Step     Update method      Time    Convergence         Total energy    Change
  ------------------------------------------------------------------------------
     1 OT DIIS     0.15E+00    2.7     0.00000139    -21644.7376717253 -1.16E-05
     2 OT DIIS     0.15E+00    1.2     0.00000151    -21644.7376737383 -2.01E-06
     3 OT DIIS     0.15E+00    1.2     0.00000133    -21644.7376745136 -7.75E-07
     4 OT DIIS     0.15E+00    1.2     0.00000133    -21644.7376782198 -3.71E-06
     5 OT DIIS     0.15E+00    1.1     0.00000128    -21644.7376925007 -1.43E-05
     6 OT DIIS     0.15E+00    1.1     0.00000126    -21644.7376964104 -3.91E-06
     7 OT DIIS     0.15E+00    1.2     0.00000126    -21644.7377100732 -1.37E-05
     8 OT DIIS     0.15E+00    1.2     0.00000120    -21644.7377349152 -2.48E-05
     9 OT DIIS     0.15E+00    1.2     0.00000120    -21644.7377434585 -8.54E-06
    10 OT DIIS     0.15E+00    1.2     0.00000118    -21644.7377528403 -9.38E-06
    11 OT DIIS     0.15E+00    1.2     0.00000117    -21644.7377700753 -1.72E-05
    12 OT DIIS     0.15E+00    1.2     0.00000112    -21644.7377939560 -2.39E-05
    13 OT DIIS     0.15E+00    1.2     0.00000111    -21644.7378056639 -1.17E-05
    14 OT DIIS     0.15E+00    1.2     0.00000110    -21644.7378154482 -9.78E-06
    15 OT DIIS     0.15E+00    1.2     0.00000108    -21644.7378281002 -1.27E-05
    16 OT DIIS     0.15E+00    1.2     0.00000106    -21644.7378456134 -1.75E-05
    17 OT DIIS     0.15E+00    1.2     0.00000105    -21644.7378522199 -6.61E-06
    18 OT DIIS     0.15E+00    1.2     0.00000104    -21644.7378595693 -7.35E-06
    19 OT DIIS     0.15E+00    1.2     0.00000103    -21644.7378638964 -4.33E-06
    20 OT DIIS     0.15E+00    1.2     0.00000102    -21644.7378695414 -5.64E-06
    21 OT DIIS     0.15E+00    1.2     0.00000101    -21644.7378734827 -3.94E-06
    22 OT DIIS     0.15E+00    1.2     0.00000100    -21644.7378772541 -3.77E-06
    23 OT DIIS     0.15E+00    1.2     0.00000100    -21644.7378804540 -3.20E-06

  *** SCF run converged in    23 steps ***


  Electronic density on regular grids:      -3248.0000000006       -0.0000000006
  Core density on regular grids:             3248.0000000000        0.0000000000
  Total charge density on r-space grids:       -0.0000000005
  Total charge density g-space grids:          -0.0000000005

  Overlap energy of the core charge distribution:               0.00000104397561
  Self energy of the core charge distribution:             -32922.51341626739304
  Core Hamiltonian energy:                                   7318.91453210665895
  Hartree energy:                                            6074.29207487485473
  Exchange-correlation energy:                              -2111.44852280813348
  Dispersion energy:                                           -3.98254940391993

  Total energy:                                            -21644.73788045395486

  outer SCF iter =    2 RMS gradient =   0.10E-05 energy =     -21644.7378804540
  outer SCF loop converged in   2 iterations or   53 steps


 ENERGY| Total FORCE_EVAL ( QS ) energy [a.u.]:           -21644.737884188329190

 --------  Informations at step =     1 ------------
  Optimization Method        =                 BFGS
  Total Energy               =    -21644.7378841883
  Real energy change         =        -0.0151853165
  Predicted change in energy =        -0.0142052965
  Scaling factor             =         0.5052441565
  Step size                  =         0.1000000000
  Trust radius               =         0.1000000000
  Decrease in energy         =                  YES
  Used time                  =               68.296

  Convergence check :
  Max. step size             =         0.1000000000
  Conv. limit for step size  =         0.0200000000
  Convergence in step size   =                   NO
  RMS step size              =         0.0113588752
  Conv. limit for RMS step   =         0.0200000000
  Convergence in RMS step    =                  YES
  Max. gradient              =         0.0268110491
  Conv. limit for gradients  =         0.0030000000
  Conv. for gradients        =                   NO
  RMS gradient               =         0.0022353746
  Conv. limit for RMS grad.  =         0.0010000000
  Conv. for gradients        =                   NO
 ---------------------------------------------------
 Estimated peak process memory after this step [MiB]                         346

 --------------------------
 OPTIMIZATION STEP:      2
 --------------------------

  Step is scaled; Scaling factor =  0.56268

 Number of electrons:                                                       3248
 Number of occupied orbitals:                                               1624
 Number of molecular orbitals:                                              1624

 Number of orbital functions:                                               4713
 Number of independent orbital functions:                                   4713

 Extrapolation method: ASPC


 SCF WAVEFUNCTION OPTIMIZATION

  ----------------------------------- OT ---------------------------------------
  Minimizer      : DIIS                : direct inversion
                                         in the iterative subspace
                                         using   7 DIIS vectors
                                         safer DIIS on
  Preconditioner : FULL_KINETIC        : inversion of T + eS
  Precond_solver : DEFAULT
  stepsize       :    0.15000000                  energy_gap     :    0.20000000
  eps_taylor     :   0.10000E-15                  max_taylor     :             4
  ----------------------------------- OT ---------------------------------------

  Step     Update method      Time    Convergence         Total energy    Change
  ------------------------------------------------------------------------------
     1 OT DIIS     0.15E+00    1.0     0.00001503    -21644.7450722361 -2.16E+04
     2 OT DIIS     0.15E+00    1.2     0.00000918    -21644.7452523692 -1.80E-04
     3 OT DIIS     0.15E+00    1.1     0.00000889    -21644.7453177352 -6.54E-05
     4 OT DIIS     0.15E+00    1.2     0.00000614    -21644.7453641337 -4.64E-05
     5 OT DIIS     0.15E+00    1.2     0.00000482    -21644.7454016904 -3.76E-05
     6 OT DIIS     0.15E+00    1.2     0.00000374    -21644.7454278556 -2.62E-05
     7 OT DIIS     0.15E+00    1.2     0.00000310    -21644.7454466388 -1.88E-05
     8 OT DIIS     0.15E+00    1.2     0.00000261    -21644.7454661560 -1.95E-05
     9 OT DIIS     0.15E+00    1.2     0.00000224    -21644.7454812100 -1.51E-05
    10 OT DIIS     0.15E+00    1.2     0.00000205    -21644.7454931912 -1.20E-05
    11 OT DIIS     0.15E+00    1.2     0.00000188    -21644.7455031724 -9.98E-06
    12 OT DIIS     0.15E+00    1.2     0.00000174    -21644.7455144336 -1.13E-05
    13 OT DIIS     0.15E+00    1.2     0.00000164    -21644.7455230649 -8.63E-06
    14 OT DIIS     0.15E+00    1.2     0.00000157    -21644.7455297354 -6.67E-06
    15 OT DIIS     0.15E+00    1.2     0.00000149    -21644.7455362626 -6.53E-06
    16 OT DIIS     0.15E+00    1.2     0.00000143    -21644.7455431868 -6.92E-06
    17 OT DIIS     0.15E+00    1.2     0.00000136    -21644.7455508001 -7.61E-06
    18 OT DIIS     0.15E+00    1.2     0.00000130    -21644.7455579612 -7.16E-06
    19 OT DIIS     0.15E+00    1.2     0.00000127    -21644.7455643910 -6.43E-06
    20 OT DIIS     0.15E+00    1.2     0.00000123    -21644.7455703931 -6.00E-06
    21 OT DIIS     0.15E+00    1.2     0.00000121    -21644.7455763352 -5.94E-06
    22 OT DIIS     0.15E+00    1.2     0.00000119    -21644.7455824338 -6.10E-06
    23 OT DIIS     0.15E+00    1.2     0.00000116    -21644.7455878882 -5.45E-06
    24 OT DIIS     0.15E+00    1.2     0.00000113    -21644.7455939085 -6.02E-06
    25 OT DIIS     0.15E+00    1.2     0.00000110    -21644.7456000047 -6.10E-06
    26 OT DIIS     0.15E+00    1.2     0.00000108    -21644.7456058858 -5.88E-06
    27 OT DIIS     0.15E+00    1.2     0.00000107    -21644.7456120888 -6.20E-06
    28 OT DIIS     0.15E+00    1.2     0.00000105    -21644.7456176362 -5.55E-06
    29 OT DIIS     0.15E+00    1.2     0.00000105    -21644.7456231641 -5.53E-06
    30 OT DIIS     0.15E+00    1.2     0.00000104    -21644.7456286939 -5.53E-06

  Leaving inner SCF loop after reaching    30 steps.


  Electronic density on regular grids:      -3247.9999999986        0.0000000014
  Core density on regular grids:             3247.9999999999       -0.0000000001
  Total charge density on r-space grids:        0.0000000013
  Total charge density g-space grids:           0.0000000013

  Overlap energy of the core charge distribution:               0.00000090282225
  Self energy of the core charge distribution:             -32922.51341626739304
  Core Hamiltonian energy:                                   7318.47580426349305
  Hartree energy:                                            6074.57012914221377
  Exchange-correlation energy:                              -2111.30014863534961
  Dispersion energy:                                           -3.97799809972116

  Total energy:                                            -21644.74562869393412

  outer SCF iter =    1 RMS gradient =   0.10E-05 energy =     -21644.7456286939

  ----------------------------------- OT ---------------------------------------
  Minimizer      : DIIS                : direct inversion
                                         in the iterative subspace
                                         using   7 DIIS vectors
                                         safer DIIS on
  Preconditioner : FULL_KINETIC        : inversion of T + eS
  Precond_solver : DEFAULT
  stepsize       :    0.15000000                  energy_gap     :    0.20000000
  eps_taylor     :   0.10000E-15                  max_taylor     :             4
  ----------------------------------- OT ---------------------------------------

  Step     Update method      Time    Convergence         Total energy    Change
  ------------------------------------------------------------------------------
     1 OT DIIS     0.15E+00    2.7     0.00000103    -21644.7456335622 -4.87E-06
     2 OT DIIS     0.15E+00    1.2     0.00000108    -21644.7456347037 -1.14E-06
     3 OT DIIS     0.15E+00    1.1     0.00000100    -21644.7456351191 -4.15E-07
     4 OT DIIS     0.15E+00    1.2     0.00000100    -21644.7456373910 -2.27E-06
     5 OT DIIS     0.15E+00    1.2     0.00000097    -21644.7456509679 -1.36E-05

  *** SCF run converged in     5 steps ***


  Electronic density on regular grids:      -3247.9999999986        0.0000000014
  Core density on regular grids:             3247.9999999999       -0.0000000001
  Total charge density on r-space grids:        0.0000000013
  Total charge density g-space grids:           0.0000000013

  Overlap energy of the core charge distribution:               0.00000090282225
  Self energy of the core charge distribution:             -32922.51341626739304
  Core Hamiltonian energy:                                   7318.47502060937404
  Hartree energy:                                            6074.57070233199101
  Exchange-correlation energy:                              -2111.29996044498057
  Dispersion energy:                                           -3.97799809972116

  Total energy:                                            -21644.74565096790684

  outer SCF iter =    2 RMS gradient =   0.97E-06 energy =     -21644.7456509679
  outer SCF loop converged in   2 iterations or   35 steps


 ENERGY| Total FORCE_EVAL ( QS ) energy [a.u.]:           -21644.745654900685622

 --------  Informations at step =     2 ------------
  Optimization Method        =                 BFGS
  Total Energy               =    -21644.7456549007
  Real energy change         =        -0.0077707124
  Predicted change in energy =        -0.0071215096
  Scaling factor             =         0.5626787911
  Step size                  =         0.1000000000
  Trust radius               =         0.1000000000
  Decrease in energy         =                  YES
  Used time                  =               47.192

  Convergence check :
  Max. step size             =         0.1000000000
  Conv. limit for step size  =         0.0200000000
  Convergence in step size   =                   NO
  RMS step size              =         0.0106398125
  Conv. limit for RMS step   =         0.0200000000
  Convergence in RMS step    =                  YES
  Max. gradient              =         0.0155562848
  Conv. limit for gradients  =         0.0030000000
  Conv. for gradients        =                   NO
  RMS gradient               =         0.0011127536
  Conv. limit for RMS grad.  =         0.0010000000
  Conv. for gradients        =                   NO
 ---------------------------------------------------
 Estimated peak process memory after this step [MiB]                         348

 --------------------------
 OPTIMIZATION STEP:      3
 --------------------------

  Step is scaled; Scaling factor =  0.65845

 Number of electrons:                                                       3248
 Number of occupied orbitals:                                               1624
 Number of molecular orbitals:                                              1624

 Number of orbital functions:                                               4713
 Number of independent orbital functions:                                   4713

 Extrapolation method: ASPC


 SCF WAVEFUNCTION OPTIMIZATION

  ----------------------------------- OT ---------------------------------------
  Minimizer      : DIIS                : direct inversion
                                         in the iterative subspace
                                         using   7 DIIS vectors
                                         safer DIIS on
  Preconditioner : FULL_KINETIC        : inversion of T + eS
  Precond_solver : DEFAULT
  stepsize       :    0.15000000                  energy_gap     :    0.20000000
  eps_taylor     :   0.10000E-15                  max_taylor     :             4
  ----------------------------------- OT ---------------------------------------

  Step     Update method      Time    Convergence         Total energy    Change
  ------------------------------------------------------------------------------
     1 OT DIIS     0.15E+00    1.0     0.00001597    -21644.7484520035 -2.16E+04
     2 OT DIIS     0.15E+00    1.1     0.00000949    -21644.7486249872 -1.73E-04
     3 OT DIIS     0.15E+00    1.1     0.00000718    -21644.7486821488 -5.72E-05
     4 OT DIIS     0.15E+00    1.2     0.00000659    -21644.7487273902 -4.52E-05
     5 OT DIIS     0.15E+00    1.2     0.00000456    -21644.7487587356 -3.13E-05
     6 OT DIIS     0.15E+00    1.2     0.00000370    -21644.7487866066 -2.79E-05
     7 OT DIIS     0.15E+00    1.2     0.00000289    -21644.7488042327 -1.76E-05
     8 OT DIIS     0.15E+00    1.2     0.00000257    -21644.7488243002 -2.01E-05
     9 OT DIIS     0.15E+00    1.2     0.00000207    -21644.7488370395 -1.27E-05
    10 OT DIIS     0.15E+00    1.2     0.00000184    -21644.7488481166 -1.11E-05
    11 OT DIIS     0.15E+00    1.2     0.00000169    -21644.7488560103 -7.89E-06
    12 OT DIIS     0.15E+00    1.2     0.00000152    -21644.7488657275 -9.72E-06
    13 OT DIIS     0.15E+00    1.2     0.00000139    -21644.7488722697 -6.54E-06
    14 OT DIIS     0.15E+00    1.2     0.00000132    -21644.7488779668 -5.70E-06
    15 OT DIIS     0.15E+00    1.2     0.00000125    -21644.7488826214 -4.65E-06
    16 OT DIIS     0.15E+00    1.2     0.00000116    -21644.7488884497 -5.83E-06
    17 OT DIIS     0.15E+00    1.2     0.00000111    -21644.7488933972 -4.95E-06
    18 OT DIIS     0.15E+00    1.2     0.00000106    -21644.7488973847 -3.99E-06
    19 OT DIIS     0.15E+00    1.2     0.00000102    -21644.7489010937 -3.71E-06
    20 OT DIIS     0.15E+00    1.2     0.00000098    -21644.7489047924 -3.70E-06

  *** SCF run converged in    20 steps ***


  Electronic density on regular grids:      -3248.0000000030       -0.0000000030
  Core density on regular grids:             3248.0000000001        0.0000000001
  Total charge density on r-space grids:       -0.0000000029
  Total charge density g-space grids:          -0.0000000029

  Overlap energy of the core charge distribution:               0.00000083775737
  Self energy of the core charge distribution:             -32922.51341626739304
  Core Hamiltonian energy:                                   7318.22729435515794
  Hartree energy:                                            6074.72800182656283
  Exchange-correlation energy:                              -2111.21537298770136
  Dispersion energy:                                           -3.97541255681856

  Total energy:                                            -21644.74890479243913

  outer SCF iter =    1 RMS gradient =   0.98E-06 energy =     -21644.7489047924
  outer SCF loop converged in   1 iterations or   20 steps


 ENERGY| Total FORCE_EVAL ( QS ) energy [a.u.]:           -21644.748908438719809

 --------  Informations at step =     3 ------------
  Optimization Method        =                 BFGS
  Total Energy               =    -21644.7489084387
  Real energy change         =        -0.0032535380
  Predicted change in energy =        -0.0026271935
  Scaling factor             =         0.6584530473
  Step size                  =         0.1000000000
  Trust radius               =         0.1000000000
  Decrease in energy         =                  YES
  Used time                  =               29.160

  Convergence check :
  Max. step size             =         0.1000000000
  Conv. limit for step size  =         0.0200000000
  Convergence in step size   =                   NO
  RMS step size              =         0.0083515415
  Conv. limit for RMS step   =         0.0200000000
  Convergence in RMS step    =                  YES
  Max. gradient              =         0.0069379610
  Conv. limit for gradients  =         0.0030000000
  Conv. for gradients        =                   NO
  RMS gradient               =         0.0005264113
  Conv. limit for RMS grad.  =         0.0010000000
  Conv. in RMS gradients     =                  YES
 ---------------------------------------------------
 Estimated peak process memory after this step [MiB]                         348

 --------------------------
 OPTIMIZATION STEP:      4
 --------------------------

  Step is scaled; Scaling factor =  0.67420

 Number of electrons:                                                       3248
 Number of occupied orbitals:                                               1624
 Number of molecular orbitals:                                              1624

 Number of orbital functions:                                               4713
 Number of independent orbital functions:                                   4713

 Extrapolation method: ASPC


 SCF WAVEFUNCTION OPTIMIZATION

  ----------------------------------- OT ---------------------------------------
  Minimizer      : DIIS                : direct inversion
                                         in the iterative subspace
                                         using   7 DIIS vectors
                                         safer DIIS on
  Preconditioner : FULL_KINETIC        : inversion of T + eS
  Precond_solver : DEFAULT
  stepsize       :    0.15000000                  energy_gap     :    0.20000000
  eps_taylor     :   0.10000E-15                  max_taylor     :             4
  ----------------------------------- OT ---------------------------------------

  Step     Update method      Time    Convergence         Total energy    Change
  ------------------------------------------------------------------------------
     1 OT DIIS     0.15E+00    1.0     0.00001064    -21644.7504718687 -2.16E+04
     2 OT DIIS     0.15E+00    1.1     0.00000642    -21644.7505594596 -8.76E-05
     3 OT DIIS     0.15E+00    1.2     0.00000608    -21644.7505896806 -3.02E-05
     4 OT DIIS     0.15E+00    1.2     0.00000440    -21644.7506119136 -2.22E-05
     5 OT DIIS     0.15E+00    1.1     0.00000356    -21644.7506306233 -1.87E-05
     6 OT DIIS     0.15E+00    1.2     0.00000266    -21644.7506453912 -1.48E-05
     7 OT DIIS     0.15E+00    1.2     0.00000236    -21644.7506563827 -1.10E-05
     8 OT DIIS     0.15E+00    1.2     0.00000206    -21644.7506672100 -1.08E-05
     9 OT DIIS     0.15E+00    1.2     0.00000173    -21644.7506773298 -1.01E-05
    10 OT DIIS     0.15E+00    1.2     0.00000157    -21644.7506854865 -8.16E-06
    11 OT DIIS     0.15E+00    1.2     0.00000147    -21644.7506923576 -6.87E-06
    12 OT DIIS     0.15E+00    1.2     0.00000138    -21644.7506994277 -7.07E-06
    13 OT DIIS     0.15E+00    1.2     0.00000131    -21644.7507046438 -5.22E-06
    14 OT DIIS     0.15E+00    1.2     0.00000127    -21644.7507090413 -4.40E-06
    15 OT DIIS     0.15E+00    1.2     0.00000123    -21644.7507133219 -4.28E-06
    16 OT DIIS     0.15E+00    1.2     0.00000119    -21644.7507189066 -5.58E-06
    17 OT DIIS     0.15E+00    1.2     0.00000116    -21644.7507242863 -5.38E-06
    18 OT DIIS     0.15E+00    1.2     0.00000111    -21644.7507292550 -4.97E-06
    19 OT DIIS     0.15E+00    1.2     0.00000108    -21644.7507346279 -5.37E-06
    20 OT DIIS     0.15E+00    1.2     0.00000106    -21644.7507399439 -5.32E-06
    21 OT DIIS     0.15E+00    1.2     0.00000104    -21644.7507454894 -5.55E-06
    22 OT DIIS     0.15E+00    1.2     0.00000103    -21644.7507510555 -5.57E-06
    23 OT DIIS     0.15E+00    1.2     0.00000101    -21644.7507564753 -5.42E-06
    24 OT DIIS     0.15E+00    1.2     0.00000098    -21644.7507629181 -6.44E-06

  *** SCF run converged in    24 steps ***


  Electronic density on regular grids:      -3247.9999999976        0.0000000024
  Core density on regular grids:             3247.9999999999       -0.0000000001
  Total charge density on r-space grids:        0.0000000022
  Total charge density g-space grids:           0.0000000022

  Overlap energy of the core charge distribution:               0.00000080932742
  Self energy of the core charge distribution:             -32922.51341626739304
  Core Hamiltonian energy:                                   7318.09108640539307
  Hartree energy:                                            6074.81434512749911
  Exchange-correlation energy:                              -2111.16875510702448
  Dispersion energy:                                           -3.97402388591283

  Total energy:                                            -21644.75076291810910

  outer SCF iter =    1 RMS gradient =   0.98E-06 energy =     -21644.7507629181
  outer SCF loop converged in   1 iterations or   24 steps


 ENERGY| Total FORCE_EVAL ( QS ) energy [a.u.]:           -21644.750769653968746

 --------  Informations at step =     4 ------------
  Optimization Method        =                 BFGS
  Total Energy               =    -21644.7507696540
  Real energy change         =        -0.0018612152
  Predicted change in energy =        -0.0013233769
  Scaling factor             =         0.6741991757
  Step size                  =         0.1000000000
  Trust radius               =         0.1000000000
  Decrease in energy         =                  YES
  Used time                  =               33.879

  Convergence check :
  Max. step size             =         0.1000000000
  Conv. limit for step size  =         0.0200000000
  Convergence in step size   =                   NO
  RMS step size              =         0.0078425670
  Conv. limit for RMS step   =         0.0200000000
  Convergence in RMS step    =                  YES
  Max. gradient              =         0.0046886468
  Conv. limit for gradients  =         0.0030000000
  Conv. for gradients        =                   NO
  RMS gradient               =         0.0004366114
  Conv. limit for RMS grad.  =         0.0010000000
  Conv. in RMS gradients     =                  YES
 ---------------------------------------------------
 Estimated peak process memory after this step [MiB]                         351

 --------------------------
 OPTIMIZATION STEP:      5
 --------------------------

  Step is scaled; Scaling factor =  0.42607

 Number of electrons:                                                       3248
 Number of occupied orbitals:                                               1624
 Number of molecular orbitals:                                              1624

 Number of orbital functions:                                               4713
 Number of independent orbital functions:                                   4713

 Extrapolation method: ASPC


 SCF WAVEFUNCTION OPTIMIZATION

  ----------------------------------- OT ---------------------------------------
  Minimizer      : DIIS                : direct inversion
                                         in the iterative subspace
                                         using   7 DIIS vectors
                                         safer DIIS on
  Preconditioner : FULL_KINETIC        : inversion of T + eS
  Precond_solver : DEFAULT
  stepsize       :    0.15000000                  energy_gap     :    0.20000000
  eps_taylor     :   0.10000E-15                  max_taylor     :             4
  ----------------------------------- OT ---------------------------------------

  Step     Update method      Time    Convergence         Total energy    Change
  ------------------------------------------------------------------------------
     1 OT DIIS     0.15E+00    1.0     0.00000920    -21644.7520893304 -2.16E+04
     2 OT DIIS     0.15E+00    1.1     0.00000602    -21644.7521548981 -6.56E-05
     3 OT DIIS     0.15E+00    1.1     0.00000600    -21644.7521766567 -2.18E-05
     4 OT DIIS     0.15E+00    1.2     0.00000378    -21644.7521971382 -2.05E-05
     5 OT DIIS     0.15E+00    1.1     0.00000309    -21644.7522120304 -1.49E-05
     6 OT DIIS     0.15E+00    1.2     0.00000238    -21644.7522234564 -1.14E-05
     7 OT DIIS     0.15E+00    1.2     0.00000219    -21644.7522312947 -7.84E-06
     8 OT DIIS     0.15E+00    1.2     0.00000187    -21644.7522396921 -8.40E-06
     9 OT DIIS     0.15E+00    1.2     0.00000163    -21644.7522489659 -9.27E-06
    10 OT DIIS     0.15E+00    1.2     0.00000150    -21644.7522568578 -7.89E-06
    11 OT DIIS     0.15E+00    1.2     0.00000141    -21644.7522638303 -6.97E-06
    12 OT DIIS     0.15E+00    1.2     0.00000133    -21644.7522707703 -6.94E-06
    13 OT DIIS     0.15E+00    1.2     0.00000125    -21644.7522760544 -5.28E-06
    14 OT DIIS     0.15E+00    1.2     0.00000121    -21644.7522802865 -4.23E-06
    15 OT DIIS     0.15E+00    1.2     0.00000117    -21644.7522841128 -3.83E-06
    16 OT DIIS     0.15E+00    1.2     0.00000114    -21644.7522888433 -4.73E-06
    17 OT DIIS     0.15E+00    1.2     0.00000111    -21644.7522931042 -4.26E-06
    18 OT DIIS     0.15E+00    1.2     0.00000108    -21644.7522974414 -4.34E-06
    19 OT DIIS     0.15E+00    1.2     0.00000106    -21644.7523021444 -4.70E-06
    20 OT DIIS     0.15E+00    1.2     0.00000104    -21644.7523067293 -4.58E-06
    21 OT DIIS     0.15E+00    1.2     0.00000103    -21644.7523114393 -4.71E-06
    22 OT DIIS     0.15E+00    1.2     0.00000101    -21644.7523168243 -5.39E-06
    23 OT DIIS     0.15E+00    1.2     0.00000100    -21644.7523220381 -5.21E-06
    24 OT DIIS     0.15E+00    1.2     0.00000098    -21644.7523285607 -6.52E-06

  *** SCF run converged in    24 steps ***


  Electronic density on regular grids:      -3248.0000000010       -0.0000000010
  Core density on regular grids:             3248.0000000000        0.0000000000
  Total charge density on r-space grids:       -0.0000000009
  Total charge density g-space grids:          -0.0000000009

  Overlap energy of the core charge distribution:               0.00000079997173
  Self energy of the core charge distribution:             -32922.51341626739304
  Core Hamiltonian energy:                                   7318.00841403496906
  Hartree energy:                                            6074.86630274170238
  Exchange-correlation energy:                              -2111.14044797160977
  Dispersion energy:                                           -3.97318189834979

  Total energy:                                            -21644.75232856071307

  outer SCF iter =    1 RMS gradient =   0.98E-06 energy =     -21644.7523285607
  outer SCF loop converged in   1 iterations or   24 steps


 ENERGY| Total FORCE_EVAL ( QS ) energy [a.u.]:           -21644.752335372078960

 --------  Informations at step =     5 ------------
  Optimization Method        =                 BFGS
  Total Energy               =    -21644.7523353721
  Real energy change         =        -0.0015657181
  Predicted change in energy =        -0.0012125604
  Scaling factor             =         0.4260702377
  Step size                  =         0.1000000000
  Trust radius               =         0.1000000000
  Decrease in energy         =                  YES
  Used time                  =               34.012

  Convergence check :
  Max. step size             =         0.1000000000
  Conv. limit for step size  =         0.0200000000
  Convergence in step size   =                   NO
  RMS step size              =         0.0081342339
  Conv. limit for RMS step   =         0.0200000000
  Convergence in RMS step    =                  YES
  Max. gradient              =         0.0047697732
  Conv. limit for gradients  =         0.0030000000
  Conv. for gradients        =                   NO
  RMS gradient               =         0.0005350321
  Conv. limit for RMS grad.  =         0.0010000000
  Conv. in RMS gradients     =                  YES
 ---------------------------------------------------
 Estimated peak process memory after this step [MiB]                         351

 --------------------------
 OPTIMIZATION STEP:      6
 --------------------------

  Step is scaled; Scaling factor =  0.25449

 Number of electrons:                                                       3248
 Number of occupied orbitals:                                               1624
 Number of molecular orbitals:                                              1624

 Number of orbital functions:                                               4713
 Number of independent orbital functions:                                   4713

 Extrapolation method: ASPC


 SCF WAVEFUNCTION OPTIMIZATION

  ----------------------------------- OT ---------------------------------------
  Minimizer      : DIIS                : direct inversion
                                         in the iterative subspace
                                         using   7 DIIS vectors
                                         safer DIIS on
  Preconditioner : FULL_KINETIC        : inversion of T + eS
  Precond_solver : DEFAULT
  stepsize       :    0.15000000                  energy_gap     :    0.20000000
  eps_taylor     :   0.10000E-15                  max_taylor     :             4
  ----------------------------------- OT ---------------------------------------

  Step     Update method      Time    Convergence         Total energy    Change
  ------------------------------------------------------------------------------
     1 OT DIIS     0.15E+00    1.0     0.00000645    -21644.7536145838 -2.16E+04
     2 OT DIIS     0.15E+00    1.1     0.00000443    -21644.7536455097 -3.09E-05
     3 OT DIIS     0.15E+00    1.2     0.00000440    -21644.7536552417 -9.73E-06
     4 OT DIIS     0.15E+00    1.1     0.00000269    -21644.7536656778 -1.04E-05
     5 OT DIIS     0.15E+00    1.2     0.00000220    -21644.7536747031 -9.03E-06
     6 OT DIIS     0.15E+00    1.1     0.00000185    -21644.7536810156 -6.31E-06
     7 OT DIIS     0.15E+00    1.2     0.00000170    -21644.7536859366 -4.92E-06
     8 OT DIIS     0.15E+00    1.2     0.00000153    -21644.7536906908 -4.75E-06
     9 OT DIIS     0.15E+00    1.1     0.00000137    -21644.7536975815 -6.89E-06
    10 OT DIIS     0.15E+00    1.2     0.00000128    -21644.7537041794 -6.60E-06
    11 OT DIIS     0.15E+00    1.2     0.00000122    -21644.7537103641 -6.18E-06
    12 OT DIIS     0.15E+00    1.2     0.00000114    -21644.7537168377 -6.47E-06
    13 OT DIIS     0.15E+00    1.2     0.00000107    -21644.7537219498 -5.11E-06
    14 OT DIIS     0.15E+00    1.2     0.00000104    -21644.7537254146 -3.46E-06
    15 OT DIIS     0.15E+00    1.2     0.00000102    -21644.7537284829 -3.07E-06
    16 OT DIIS     0.15E+00    1.2     0.00000099    -21644.7537318145 -3.33E-06

  *** SCF run converged in    16 steps ***


  Electronic density on regular grids:      -3248.0000000001       -0.0000000001
  Core density on regular grids:             3248.0000000000       -0.0000000000
  Total charge density on r-space grids:       -0.0000000001
  Total charge density g-space grids:          -0.0000000001

  Overlap energy of the core charge distribution:               0.00000080131796
  Self energy of the core charge distribution:             -32922.51341626739304
  Core Hamiltonian energy:                                   7317.95717672647515
  Hartree energy:                                            6074.89784636453896
  Exchange-correlation energy:                              -2111.12269934628785
  Dispersion energy:                                           -3.97264009312095

  Total energy:                                            -21644.75373181447139

  outer SCF iter =    1 RMS gradient =   0.99E-06 energy =     -21644.7537318145
  outer SCF loop converged in   1 iterations or   16 steps


 ENERGY| Total FORCE_EVAL ( QS ) energy [a.u.]:           -21644.753735010515811

 --------  Informations at step =     6 ------------
  Optimization Method        =                 BFGS
  Total Energy               =    -21644.7537350105
  Real energy change         =        -0.0013996384
  Predicted change in energy =        -0.0012127805
  Scaling factor             =         0.2544935163
  Step size                  =         0.1000000000
  Trust radius               =         0.1000000000
  Decrease in energy         =                  YES
  Used time                  =               24.517

  Convergence check :
  Max. step size             =         0.1000000000
  Conv. limit for step size  =         0.0200000000
  Convergence in step size   =                   NO
  RMS step size              =         0.0083128962
  Conv. limit for RMS step   =         0.0200000000
  Convergence in RMS step    =                  YES
  Max. gradient              =         0.0059572583
  Conv. limit for gradients  =         0.0030000000
  Conv. for gradients        =                   NO
  RMS gradient               =         0.0006143933
  Conv. limit for RMS grad.  =         0.0010000000
  Conv. in RMS gradients     =                  YES
 ---------------------------------------------------
 Estimated peak process memory after this step [MiB]                         352

 --------------------------
 OPTIMIZATION STEP:      7
 --------------------------

  Step is scaled; Scaling factor =  0.18060

 Number of electrons:                                                       3248
 Number of occupied orbitals:                                               1624
 Number of molecular orbitals:                                              1624

 Number of orbital functions:                                               4713
 Number of independent orbital functions:                                   4713

 Extrapolation method: ASPC


 SCF WAVEFUNCTION OPTIMIZATION

  ----------------------------------- OT ---------------------------------------
  Minimizer      : DIIS                : direct inversion
                                         in the iterative subspace
                                         using   7 DIIS vectors
                                         safer DIIS on
  Preconditioner : FULL_KINETIC        : inversion of T + eS
  Precond_solver : DEFAULT
  stepsize       :    0.15000000                  energy_gap     :    0.20000000
  eps_taylor     :   0.10000E-15                  max_taylor     :             4
  ----------------------------------- OT ---------------------------------------

  Step     Update method      Time    Convergence         Total energy    Change
  ------------------------------------------------------------------------------
     1 OT DIIS     0.15E+00    1.0     0.00000377    -21644.7549437617 -2.16E+04
     2 OT DIIS     0.15E+00    1.1     0.00000306    -21644.7549537219 -9.96E-06
     3 OT DIIS     0.15E+00    1.2     0.00000271    -21644.7549573675 -3.65E-06
     4 OT DIIS     0.15E+00    1.2     0.00000186    -21644.7549618710 -4.50E-06
     5 OT DIIS     0.15E+00    1.1     0.00000165    -21644.7549668449 -4.97E-06
     6 OT DIIS     0.15E+00    1.1     0.00000153    -21644.7549703407 -3.50E-06
     7 OT DIIS     0.15E+00    1.2     0.00000140    -21644.7549744268 -4.09E-06
     8 OT DIIS     0.15E+00    1.1     0.00000133    -21644.7549789695 -4.54E-06
     9 OT DIIS     0.15E+00    1.2     0.00000124    -21644.7549857915 -6.82E-06
    10 OT DIIS     0.15E+00    1.1     0.00000120    -21644.7549923279 -6.54E-06
    11 OT DIIS     0.15E+00    1.2     0.00000117    -21644.7549980253 -5.70E-06
    12 OT DIIS     0.15E+00    1.2     0.00000112    -21644.7550045273 -6.50E-06
    13 OT DIIS     0.15E+00    1.2     0.00000110    -21644.7550101528 -5.63E-06
    14 OT DIIS     0.15E+00    1.2     0.00000108    -21644.7550139066 -3.75E-06
    15 OT DIIS     0.15E+00    1.2     0.00000107    -21644.7550180968 -4.19E-06
    16 OT DIIS     0.15E+00    1.2     0.00000105    -21644.7550229615 -4.86E-06
    17 OT DIIS     0.15E+00    1.2     0.00000104    -21644.7550290427 -6.08E-06
    18 OT DIIS     0.15E+00    1.2     0.00000102    -21644.7550345102 -5.47E-06
    19 OT DIIS     0.15E+00    1.2     0.00000101    -21644.7550415293 -7.02E-06
    20 OT DIIS     0.15E+00    1.2     0.00000099    -21644.7550493142 -7.78E-06

  *** SCF run converged in    20 steps ***


  Electronic density on regular grids:      -3247.9999999996        0.0000000004
  Core density on regular grids:             3248.0000000000       -0.0000000000
  Total charge density on r-space grids:        0.0000000004
  Total charge density g-space grids:           0.0000000004

  Overlap energy of the core charge distribution:               0.00000080812886
  Self energy of the core charge distribution:             -32922.51341626739304
  Core Hamiltonian energy:                                   7317.93294515932757
  Hartree energy:                                            6074.91146826126896
  Exchange-correlation energy:                              -2111.11373685757871
  Dispersion energy:                                           -3.97231041792925

  Total energy:                                            -21644.75504931417527

  outer SCF iter =    1 RMS gradient =   0.99E-06 energy =     -21644.7550493142
  outer SCF loop converged in   1 iterations or   20 steps


 ENERGY| Total FORCE_EVAL ( QS ) energy [a.u.]:           -21644.755057280097390

 --------  Informations at step =     7 ------------
  Optimization Method        =                 BFGS
  Total Energy               =    -21644.7550572801
  Real energy change         =        -0.0013222696
  Predicted change in energy =        -0.0012088082
  Scaling factor             =         0.1806031064
  Step size                  =         0.1000000000
  Trust radius               =         0.1000000000
  Decrease in energy         =                  YES
  Used time                  =               29.094

  Convergence check :
  Max. step size             =         0.1000000000
  Conv. limit for step size  =         0.0200000000
  Convergence in step size   =                   NO
  RMS step size              =         0.0085130202
  Conv. limit for RMS step   =         0.0200000000
  Convergence in RMS step    =                  YES
  Max. gradient              =         0.0065437671
  Conv. limit for gradients  =         0.0030000000
  Conv. for gradients        =                   NO
  RMS gradient               =         0.0006468794
  Conv. limit for RMS grad.  =         0.0010000000
  Conv. in RMS gradients     =                  YES
[...]
 flops   312 x    96 x   128        3673018073088       0.0%    100.0%      0.0%
 flops   312 x   128 x    96        3673018073088       0.0%    100.0%      0.0%
 flops   312 x    96 x   312        3836992094208       0.0%    100.0%      0.0%
 flops   299 x    96 x    96        4289970327552       0.0%    100.0%      0.0%
 flops    96 x   128 x   286        4749780811776       0.0%    100.0%      0.0%
 flops   128 x    96 x   286        4749780811776       0.0%    100.0%      0.0%
 flops    26 x    26 x   128        5609973657600       0.0%    100.0%      0.0%
 flops   286 x    96 x   291        5740884205056       0.0%    100.0%      0.0%
 flops   291 x    96 x   286        5740884205056       0.0%    100.0%      0.0%
 flops   286 x   128 x    96        5892133158912       0.0%    100.0%      0.0%
 flops   286 x    96 x   128        5892133158912       0.0%    100.0%      0.0%
 flops   286 x    96 x   312        6155174817792       0.0%    100.0%      0.0%
 flops   312 x    96 x   286        6155174817792       0.0%    100.0%      0.0%
 flops   286 x    96 x   286        9873926270208       0.0%    100.0%      0.0%
 flops    96 x    96 x   291       13462852755456       0.0%    100.0%      0.0%
 flops    96 x    96 x   312       14434398830592       0.0%    100.0%      0.0%
 flops    96 x    96 x    96       16117699313664       0.0%    100.0%      0.0%
 flops   291 x    96 x    96       16700754051072       0.0%    100.0%      0.0%
 flops   312 x    96 x    96       17905963106304       0.0%    100.0%      0.0%
 flops    96 x    96 x   286       23155181457408       0.0%    100.0%      0.0%
 flops    26 x    26 x    96       27348621580800       0.0%    100.0%      0.0%
 flops   286 x    96 x    96       28724149149696       0.0%    100.0%      0.0%
 flops    26 x    32 x    26      147114040320000       0.0%    100.0%      0.0%
 flops inhomo. stacks              10824520656768     100.0%      0.0%      0.0%
 flops total                       501.530411E+12       2.2%     97.8%      0.0%
 flops max/rank                      2.639319E+12       2.3%     97.7%      0.0%
 matmuls inhomo. stacks                   1203200     100.0%      0.0%      0.0%
 matmuls total                         3993198462       0.0%    100.0%      0.0%
 number of processed stacks              77475094       1.6%     98.4%      0.0%
 average stack size                                     1.0      52.3       0.0
 marketing flops                   539.091343E+12
 -------------------------------------------------------------------------------
 # multiplications                          16640
 max memory usage/rank             375.300096E+06
 # max total images/rank                        1
 # max 3D layers                                1
 # MPI messages exchanged               127795200
 MPI messages size (bytes):
  total size                        28.066452E+12
  min size                           0.000000E+00
  max size                         778.752000E+03
  average size                     219.620547E+03
 MPI breakdown and total messages size (bytes):
             size <=      128              530160                        0
       128 < size <=     8192                   0                        0
      8192 < size <=    32768               11280                292016640
     32768 < size <=   131072            49528320            4082025077760
    131072 < size <=  4194304            77725440           23982027731280
   4194304 < size <= 16777216                   0                        0
  16777216 < size                               0                        0
 -------------------------------------------------------------------------------
 -                                                                             -
 -                      DBCSR MESSAGE PASSING PERFORMANCE                      -
 -                                                                             -
 -------------------------------------------------------------------------------
 ROUTINE             CALLS      AVE VOLUME [Bytes]
 MP_Bcast              178                     12.
 MP_Allreduce        90690                      8.
 MP_Alltoall         54105                 101584.
 MP_ISend          1064772                 115056.
 MP_IRecv          1064772                 114201.
 -------------------------------------------------------------------------------

 -------------------------------------------------------------------------------
 -                                                                             -
 -                                DBM STATISTICS                               -
 -                                                                             -
 -------------------------------------------------------------------------------
    M  x    N  x    K                                          COUNT     PERCENT
 -------------------------------------------------------------------------------

 -------------------------------------------------------------------------------
 -                                                                             -
 -                                GRID STATISTICS                              -
 -                                                                             -
 -------------------------------------------------------------------------------
 LP    KERNEL             BACKEND                              COUNT     PERCENT
 6     collocate general  REF                              252274640      45.72%
 6     integrate general  REF                              245086496      44.41%
 4     collocate general  REF                               17523779       3.18%
 4     integrate general  REF                               17027771       3.09%
 7     integrate general  REF                                7036246       1.28%
 5     integrate general  REF                                4290179       0.78%
 5     collocate general  REF                                3915411       0.71%
 0     collocate general  REF                                1326080       0.24%
 1     integrate general  REF                                1278720       0.23%
 2     collocate general  REF                                 740006       0.13%
 2     integrate general  REF                                 718573       0.13%
 3     integrate general  REF                                 309289       0.06%
 3     collocate general  REF                                 297217       0.05%
 -------------------------------------------------------------------------------

 MEMORY| Estimated peak process memory [MiB]                                 358

 -------------------------------------------------------------------------------
 -                                                                             -
 -                         MESSAGE PASSING PERFORMANCE                         -
 -                                                                             -
 -------------------------------------------------------------------------------

 ROUTINE             CALLS      AVE VOLUME [Bytes]
 MP_Group                5
 MP_Bcast             6241                 112297.
 MP_Allreduce        13941                    635.
 MP_Sync             15575
 MP_Alltoall         31488              213765077.
 MP_SendRecv         27540                   2274.
 MP_ISendRecv      1480275                   6789.
 MP_Wait           1595595
 MP_comm_split          45
 MP_ISend           366462                 107384.
 MP_IRecv           366728                 107308.
 MP_Recv              1842                 951107.
 -------------------------------------------------------------------------------


 -------------------------------------------------------------------------------
 -                                                                             -
 -                           R E F E R E N C E S                               -
 -                                                                             -
 -------------------------------------------------------------------------------
 
 CP2K version 2022.1 (Development Version), the CP2K developers group (2022).
 CP2K is freely available from https://www.cp2k.org/ .

 Kuehne,Thomas D.; Iannuzzi,Marcella; Del Ben,Mauro;
 Rybkin,Vladimir V.; Seewald,Patrick; Stein,Frederick; Laino,Teodoro;
 Khaliullin,Rustam Z.; Schuett,Ole; Schiffmann,Florian; Golze,Dorothea;
 Wilhelm,Jan; Chulkov,Sergey; Bani-Hashemian,Mohammad Hossein;
 Weber,Valery; Borstnik,Urban; Taillefumier,Mathieu;
 Jakobovits,Alice Shoshana; Lazzaro,Alfio; Pabst,Hans; Mueller,Tiziano;
 Schade,Robert; Guidon,Manuel; Andermatt,Samuel; Holmberg,Nico;
 Schenter,Gregory K.; Hehn,Anna; Bussy,Augustin; Belleflamme,Fabian;
 Tabacchi,Gloria; Gloess,Andreas; Lass,Michael; Bethune,Iain;
 Mundy,Christopher J.; Plessl,Christian; Watkins,Matt;
 VandeVondele,Joost; Krack,Matthias; Hutter,Juerg. 
 The Journal of Chemical Physics, 152 (19), (2020). 
 CP2K: An electronic structure and molecular dynamics software package -
 Quickstep: Efficient and accurate electronic structure calculations.
 https://doi.org/10.1063/5.0007045

 Goerigk, Lars; Hansen, Andreas; Bauer, Christoph; Ehrlich, Stephan;
 Najibi, Asim; Grimme, Stefan. , 19 (48), (2017). 
 A look at the density functional theory zoo with the advanced GMTKN55 database
 for general main group thermochemistry, kinetics and noncovalent interactions.
 https://doi.org/10.1039/C7CP04913G

 Schuett, Ole; Messmer, Peter; Hutter, Juerg; VandeVondele, Joost. 
 Electronic Structure Calculations on Graphics Processing Units, John
 Wiley & Sons, Ltd, 173-190 (2016). 
 GPU-Accelerated Sparse Matrix-Matrix Multiplication for
 Linear Scaling Density Functional Theory.
 https://doi.org/10.1002/9781118670712.ch8

 Heinecke, A; Henry, G; Hutchinson, M; Pabst, H. 
 Proceedings of Intl. Supercomputing Conference, 981-991 (2016). 
 LIBXSMM: Accelerating Small Matrix Multiplications
 by Runtime Code Generation.
 https://doi.org/10.1109/SC.2016.83

 Borstnik, U; VandeVondele, J; Weber, V; Hutter, J. 
 PARALLEL COMPUTING, 40 (5-6), 47-58 (2014). 
 Sparse matrix multiplication: The distributed block-compressed sparse
 row library.
 https://doi.org/10.1016/j.parco.2014.03.012

 Hutter, J; Iannuzzi, M; Schiffmann, F; VandeVondele, J. 
 WIREs Comput Mol Sci., 4 (1), 15-25 (2014). 
 CP2K: atomistic simulations of condensed matter systems.
 https://doi.org/10.1002/wcms.1159

 Marek, A; Blum, V; Johanni, R; Havu, V; Lang, B; Auckenthaler, T;
 Heinecke, A; Bungartz, H; Lederer, H. 
 Journal of Physics: Condensed Matter, 26 (21), (2014). 
 The ELPA library: scalable parallel eigenvalue solutions for
 electronic structure
 theory and computational science.
 https://doi.org/10.1088/0953-8984/26/21/213201

 Grimme, S; Ehrlich, S; Goerigk, L. 
 JOURNAL OF COMPUTATIONAL CHEMISTRY, 32, 1456 (2011). 
 Effect of the damping function in dispersion corrected density functional theory.
 https://doi.org/10.1002/jcc.21759

 Grimme, S; Antony, J; Ehrlich, S; Krieg, H. 
 JOURNAL OF CHEMICAL PHYSICS, 132 (15), 154104 (2010). 
 A consistent and accurate ab initio parametrization of density
 functional dispersion correction (DFT-D) for the 94 elements H-Pu.
 https://doi.org/10.1063/1.3382344

 VandeVondele, J; Hutter, J. 
 JOURNAL OF CHEMICAL PHYSICS, 127 (11), 114105 (2007). 
 Gaussian basis sets for accurate calculations on molecular systems in
 gas and condensed phases.
 https://doi.org/10.1063/1.2770708

 Kuhne, TD; Krack, M; Mohamed, FR; Parrinello, M. 
 PHYSICAL REVIEW LETTERS, 98 (6), 066401 (2007). 
 Efficient and accurate Car-Parrinello-like approach to
 Born-Oppenheimer molecular dynamics.
 https://doi.org/10.1103/PhysRevLett.98.066401

 Krack, M. 
 THEORETICAL CHEMISTRY ACCOUNTS, 114 (1-3), 145-152 (2005). 
 Pseudopotentials for H to Kr optimized for gradient-corrected
 exchange-correlation functionals.
 https://doi.org/10.1007/s00214-005-0655-y

 VandeVondele, J; Krack, M; Mohamed, F; Parrinello, M; Chassaing, T;
 Hutter, J. COMPUTER PHYSICS COMMUNICATIONS, 167 (2), 103-128 (2005). 
 QUICKSTEP: Fast and accurate density functional calculations using a
 mixed Gaussian and plane waves approach.
 https://doi.org/10.1016/j.cpc.2004.12.014

 Frigo, M; Johnson, SG. 
 PROCEEDINGS OF THE IEEE, 93 (2), 216-231 (2005). 
 The design and implementation of FFTW3.
 https://doi.org/10.1109/JPROC.2004.840301

 Kolafa, J. 
 JOURNAL OF COMPUTATIONAL CHEMISTRY, 25 (3), 335-342 (2004). 
 Time-reversible always stable predictor-corrector method for
 molecular dynamics of polarizable molecules.
 https://doi.org/10.1002/jcc.10385

 VandeVondele, J; Hutter, J. 
 JOURNAL OF CHEMICAL PHYSICS, 118 (10), 4365-4369 (2003). 
 An efficient orbital transformation method for electronic structure
 calculations.
 https://doi.org/10.1063/1.1543154

 Hartwigsen, C; Goedecker, S; Hutter, J. 
 PHYSICAL REVIEW B, 58 (7), 3641-3662 (1998). 
 Relativistic separable dual-space Gaussian pseudopotentials from H to Rn.
 https://doi.org/10.1103/PhysRevB.58.3641

 Lippert, G; Hutter, J; Parrinello, M. 
 MOLECULAR PHYSICS, 92 (3), 477-487 (1997). 
 A hybrid Gaussian and plane wave density functional scheme.
 https://doi.org/10.1080/002689797170220

 Perdew, JP; Burke, K; Ernzerhof, M. 
 PHYSICAL REVIEW LETTERS, 77 (18), 3865-3868 (1996). 
 Generalized gradient approximation made simple.
 https://doi.org/10.1103/PhysRevLett.77.3865

 Goedecker, S; Teter, M; Hutter, J. 
 PHYSICAL REVIEW B, 54 (3), 1703-1710 (1996). 
 Separable dual-space Gaussian pseudopotentials.
 https://doi.org/10.1103/PhysRevB.54.1703


 -------------------------------------------------------------------------------
 -                                                                             -
 -                                T I M I N G                                  -
 -                                                                             -
 -------------------------------------------------------------------------------
 SUBROUTINE                       CALLS  ASD         SELF TIME        TOTAL TIME
                                MAXIMUM       AVERAGE  MAXIMUM  AVERAGE  MAXIMUM
 CP2K                                 1  1.0    0.015    0.041 1275.816 1275.823
 cp_geo_opt                           1  2.0    0.000    0.001 1275.320 1275.326
 geoopt_bfgs                          1  3.0    0.012    0.018 1275.319 1275.326
 cp_eval_at                          28  4.0    0.005    0.006 1272.637 1272.648
 qs_forces                           27  5.0    0.004    0.006 1229.461 1229.468
 qs_energies                         28  6.0    0.003    0.004 1170.409 1170.465
 scf_env_do_scf                      28  7.0    0.002    0.007 1126.892 1126.910
 scf_env_do_scf_inner_loop          940  8.0    0.023    0.066 1084.250 1086.190
 rebuild_ks_matrix                  967  9.9    0.006    0.009  563.084  567.259
 qs_ks_build_kohn_sham_matrix       967 10.9    0.158    0.180  563.078  567.254
 qs_ks_update_qs_env                987  9.0    0.015    0.019  539.992  544.034
 sum_up_and_integrate               967 11.9    0.328    0.413  451.307  451.660
 integrate_v_rspace                 967 12.9    0.032    0.056  450.976  451.302
 rs_pw_transfer                    9730 13.4    0.144    0.220  282.689  376.124
 qs_rho_update_rho_low              968  9.0    0.008    0.011  366.021  367.449
 calculate_rho_elec                 968 10.0    0.177    0.186  366.013  367.444
 grid_integrate_task_list           967 13.9  190.945  300.591  190.945  300.591
 grid_collocate_task_list           968 11.0  187.625  272.806  187.625  272.806
 density_rs2pw                      968 11.0    0.043    0.064  169.460  263.345
 mp_waitany                       74410 15.4  146.391  249.782  146.391  249.782
 dbcsr_multiply_generic           16640 13.9    0.647    0.717  221.187  232.988
 mp_alltoall_d11v                 11259 15.3  126.441  231.633  126.441  231.633
 rs_gather_matrices                 967 13.9    0.478    0.749  117.135  223.548
 qs_scf_new_mos                     940  9.0    0.006    0.008  215.481  217.581
 qs_scf_loop_do_ot                  940 10.0    0.005    0.008  215.475  217.576
 ot_scf_mini                        940 11.0    0.025    0.035  200.019  202.195
 rs_pw_transfer_RS2PW_150           996 12.9   19.881   39.161  102.965  201.196
 multiply_cannon                  16640 14.9    1.170    1.480  161.106  190.114
 multiply_cannon_loop             16640 15.9    1.141    1.303  152.035  179.998
 potential_pw2rs                    967 13.9    0.047    0.063  142.605  143.144
 ot_mini                            940 12.0    0.012    0.017  135.018  137.707
 multiply_cannon_multrec         266240 16.9   90.250  121.696   90.308  121.754
 qs_ot_get_derivative               940 13.0    0.006    0.009  105.728  107.996
 mp_waitall_1                   3917345 17.0   82.415  104.268   82.415  104.268
 pw_transfer                      20341 14.0    1.526    1.903   97.522  101.845
 fft_wrap_pw1pw2                  18407 15.1    0.185    0.225   95.352   99.366
 fft_wrap_pw1pw2_150              10667 16.6    5.616    6.095   84.464   88.488
 build_core_hamiltonian_matrix_      27  6.0    0.001    0.001   70.573   77.964
 fft3d_pb                         10667 17.6   19.795   22.112   72.076   76.792
 rs_pw_transfer_PW2RS_150           994 15.7   48.199   49.900   74.997   76.604
 qs_vxc_create                      967 11.9    0.031    0.034   74.838   75.463
 xc_vxc_pw_create                   967 12.9    0.417    0.559   74.806   75.432
 qs_ot_get_derivative_taylor        923 14.0    0.017    0.023   69.483   71.761
 build_core_ppnl_forces              27  7.0   61.351   67.217   61.351   67.217
 multiply_cannon_metrocomm1      266240 16.9    0.518    0.588   37.227   57.063
 xc_pw_derive                      5802 14.9    0.046    0.055   53.706   56.250
 mp_alltoall_z22v                 29074 19.3   44.822   55.084   44.822   55.084
 rs_pw_transfer_RS2PW_50            968 13.0   14.638   20.465   40.877   54.906
 rs_pw_transfer_PW2RS_50            967 15.9   12.179   17.450   44.503   48.938
 mp_sum_d                         19949 14.1   15.893   46.407   15.893   46.407
 init_scf_loop                       47  8.0    0.001    0.002   40.595   40.603
 multiply_cannon_metrocomm3      266240 16.9    0.456    0.512   12.054   38.624
 xc_pw_divergence                   967 13.9    0.021    0.026   36.775   38.528
 xc_rho_set_and_dset_create         967 13.9    0.832    1.035   36.892   37.603
 make_m2s                         33280 14.9    0.404    0.478   34.425   37.275
 calculate_ecore_overlap             55  7.0    0.000    0.001    7.529   37.001
 mp_sum_l                         79306 14.9   21.534   34.665   21.534   34.665
 make_images                      33280 15.9    0.869    0.966   30.569   33.195
 qs_ot_get_p                        987 11.9    0.006    0.009   29.221   31.420
 mp_irecv_dv                     565838 17.8    9.317   31.071    9.317   31.071
 ot_diis_step                       940 13.0    0.087    0.095   27.878   27.881
 apply_preconditioner_dbcsr         987 14.0    0.002    0.003   22.776   25.651
 apply_single                       987 15.0    0.003    0.005   22.774   25.650
 -------------------------------------------------------------------------------

 The number of warnings for this run is : 0
 
 -------------------------------------------------------------------------------
  **** **** ******  **  PROGRAM ENDED AT                 2023-04-19 16:06:20.860
 ***** ** ***  *** **   PROGRAM RAN ON                                 nid001028
 **    ****   ******    PROGRAM RAN BY                                  dpassero
 ***** **    ** ** **   PROGRAM PROCESS ID                                 32460
  **** **  *******  **  PROGRAM STOPPED IN /scratch/e1000/dpassero/MMM_2023/jbac
                                           hmann/grimme_d3/methane/full
