 DBCSR| CPU Multiplication driver                                           XSMM
 DBCSR| Multrec recursion limit                                              512
 DBCSR| Multiplication stack size                                           1000
 DBCSR| Maximum elements for images                                    UNLIMITED
 DBCSR| Multiplicative factor virtual images                                   1
 DBCSR| Use multiplication densification                                       T
 DBCSR| Multiplication size stacks                                             3
 DBCSR| Use memory pool for CPU allocation                                     F
 DBCSR| Number of 3D layers                                               SINGLE
 DBCSR| Use MPI memory allocation                                              F
 DBCSR| Use RMA algorithm                                                      F
 DBCSR| Use Communication thread                                               T
 DBCSR| Communication thread load                                             87
 DBCSR| MPI: My node id                                                        0
 DBCSR| MPI: Number of nodes                                                 256
 DBCSR| OMP: Current number of threads                                         1
 DBCSR| OMP: Max number of threads                                             1
 DBCSR| Split modifier for TAS multiplication algorithm                  1.0E+00


  **** **** ******  **  PROGRAM STARTED AT               2023-04-19 14:33:29.457
 ***** ** ***  *** **   PROGRAM STARTED ON                             nid001731
 **    ****   ******    PROGRAM STARTED BY                              dpassero
 ***** **    ** ** **   PROGRAM PROCESS ID                                 14783
  **** **  *******  **  PROGRAM STARTED IN /scratch/e1000/dpassero/MMM_2023/jbac
                                           hmann/ethane/full

 CP2K| version string:                 CP2K version 2022.1 (Development Version)
 CP2K| source code revision number:                                  git:4ddb46c
 CP2K| cp2kflags: omp libint fftw3 libxc elpa parallel mpi3 scalapack xsmm max_c
 CP2K|            ontr=4 plumed2 spglib
 CP2K| is freely available from                            https://www.cp2k.org/
 CP2K| Program compiled at                      Wed 14 Sep 2022 12:18:41 PM CEST
 CP2K| Program compiled on                                             nid001080
 CP2K| Program compiled for                                 Eiger-gfortran_May22
 CP2K| Data directory path         /users/mmi/DEV/CP2K/trunk_new/eiger/cp2k/data
 CP2K| Input file name        /scratch/e1000/dpassero/MMM_2023/jbachmann/ethane/

 GLOBAL| Force Environment number                                              1
 GLOBAL| Basis set file name                                        BASIS_MOLOPT
 GLOBAL| Potential file name                                           POTENTIAL
 GLOBAL| MM Potential file name                                     MM_POTENTIAL
 GLOBAL| Coordinate file name                                   ethane_on_pt.xyz
 GLOBAL| Method name                                                        CP2K
 GLOBAL| Project name                                               ethane_on_pt
 GLOBAL| Run type                                                        GEO_OPT
 GLOBAL| FFT library                                                       FFTW3
 GLOBAL| Diagonalization library                                            ELPA
 GLOBAL| DGEMM library                                                      BLAS
 GLOBAL| Minimum number of eigenvectors for ELPA usage                        16
 GLOBAL| Orthonormality check for eigenvectors                          DISABLED
 GLOBAL| Matrix multiplication library                                 ScaLAPACK
 GLOBAL| All-to-all communication in single precision                          F
 GLOBAL| FFTs using library dependent lengths                                  T
 GLOBAL| Grid backend                                                       AUTO
 GLOBAL| Global print level                                                  LOW
 GLOBAL| MPI I/O enabled                                                       T
 GLOBAL| Total number of message passing processes                           256
 GLOBAL| Number of threads for this process                                    1
 GLOBAL| This output is from process                                           0
 GLOBAL| Stack size for threads created by OpenMP (OMP_STACKSIZE)           100M
 GLOBAL| CPU model name                          AMD EPYC 7742 64-Core Processor
 GLOBAL| CPUID                                                              1002

 MEMORY| system memory details [Kb]
 MEMORY|                        rank 0           min           max       average
 MEMORY| MemTotal            527747268     527747268     527747268     527747268
 MEMORY| MemFree             494847600     494064928     494847600     494456363
 MEMORY| Buffers                261180        261180        501628        381404
 MEMORY| Cached                4520920       4244784       4520920       4382852
 MEMORY| Slab                  8119144       8118640       9149308       8634206
 MEMORY| SReclaimable           767468        767468       1360376       1063922
 MEMORY| MemLikelyFree       500397168     500171716     500397168     500284541


 GENERATE|  Preliminary Number of Bonds generated:                             0
 GENERATE|  Achieved consistency in connectivity generation.

 *******************************************************************************
 *******************************************************************************
 **                                                                           **
 **     #####                         ##              ##                      **
 **    ##   ##            ##          ##              ##                      **
 **   ##     ##                       ##            ######                    **
 **   ##     ##  ##   ##  ##   #####  ##  ##   ####   ##    #####    #####    **
 **   ##     ##  ##   ##  ##  ##      ## ##   ##      ##   ##   ##  ##   ##   **
 **   ##  ## ##  ##   ##  ##  ##      ####     ###    ##   ######   ######    **
 **    ##  ###   ##   ##  ##  ##      ## ##      ##   ##   ##       ##        **
 **     #######   #####   ##   #####  ##  ##  ####    ##    #####   ##        **
 **           ##                                                    ##        **
 **                                                                           **
 **                                                ... make the atoms dance   **
 **                                                                           **
 **            Copyright (C) by CP2K developers group (2000-2022)             **
 **                      J. Chem. Phys. 152, 194103 (2020)                    **
 **                                                                           **
 *******************************************************************************


 TOTAL NUMBERS AND MAXIMUM NUMBERS

  Total number of            - Atomic kinds:                                   3
                             - Atoms:                                        188
                             - Shell sets:                                   188
                             - Shells:                                      1468
                             - Primitive Cartesian functions:               1136
                             - Cartesian basis functions:                   5638
                             - Spherical basis functions:                   4736

  Maximum angular momentum of- Orbital basis functions:                        3
                             - Local part of the GTH pseudopotential:          2
                             - Non-local part of the GTH pseudopotential:      5


 SCF PARAMETERS         Density guess:                                   RESTART
                        --------------------------------------------------------
                        max_scf:                                              30
                        max_scf_history:                                       0
                        max_diis:                                              4
                        --------------------------------------------------------
                        eps_scf:                                        1.00E-06
                        eps_scf_history:                                0.00E+00
                        eps_diis:                                       1.00E-01
                        eps_eigval:                                     1.00E-05
                        --------------------------------------------------------
                        level_shift [a.u.]:                             0.000000
                        --------------------------------------------------------
                        Outer loop SCF in use 
                        No variables optimised in outer loop
                        eps_scf                                         1.00E-06
                        max_scf                                               20
                        No outer loop optimization
                        step_size                                       5.00E-01

 BFGS| Use rational function optimization for step estimation:                NO
 BFGS| Use model Hessian for initial guess:                                  YES
 BFGS| Restart Hessian:                                                       NO
 BFGS| Trust radius:                                                       0.100

 *******************************************************************************
 ***                     STARTING GEOMETRY OPTIMIZATION                      ***
 ***                                   BFGS                                  ***
 *******************************************************************************

 Number of electrons:                                                       3254
 Number of occupied orbitals:                                               1627
 Number of molecular orbitals:                                              1627

 Number of orbital functions:                                               4736
 Number of independent orbital functions:                                   4736

 Extrapolation method: initial_guess

 *** WARNING in qs_initial_guess.F:310 :: User requested to restart the    ***
 *** wavefunction from the file named: ethane_on_pt-RESTART.wfn. This file ***
 *** does not exist. Please check the existence of the file or change      ***
 *** properly the value of the keyword WFN_RESTART_FILE_NAME. Calculation  ***
 *** continues using ATOMIC GUESS.                                         ***



 SCF WAVEFUNCTION OPTIMIZATION

  ----------------------------------- OT ---------------------------------------
  Minimizer      : DIIS                : direct inversion
                                         in the iterative subspace
                                         using   7 DIIS vectors
                                         safer DIIS on
  Preconditioner : FULL_KINETIC        : inversion of T + eS
  Precond_solver : DEFAULT
  stepsize       :    0.15000000                  energy_gap     :    0.20000000
  eps_taylor     :   0.10000E-15                  max_taylor     :             4
  ----------------------------------- OT ---------------------------------------

  Step     Update method      Time    Convergence         Total energy    Change
  ------------------------------------------------------------------------------
     1 OT DIIS     0.15E+00    1.9     0.01465688    -21487.2025915970 -2.15E+04
     2 OT DIIS     0.15E+00    2.0     0.00899909    -21623.3926704981 -1.36E+02
     3 OT DIIS     0.15E+00    1.9     0.00621126    -21662.9124636473 -3.95E+01
     4 OT DIIS     0.15E+00    1.9     0.00539787    -21682.9546800053 -2.00E+01
     5 OT DIIS     0.15E+00    1.9     0.00313091    -21694.9353361688 -1.20E+01
     6 OT DIIS     0.15E+00    1.9     0.00184978    -21701.1808577164 -6.25E+00
     7 OT DIIS     0.15E+00    2.0     0.00128339    -21704.6076657555 -3.43E+00
     8 OT DIIS     0.15E+00    1.9     0.00100563    -21706.8406577975 -2.23E+00
     9 OT DIIS     0.15E+00    1.9     0.00089515    -21708.3795765978 -1.54E+00
    10 OT DIIS     0.15E+00    1.9     0.00080249    -21709.9929390556 -1.61E+00
    11 OT DIIS     0.15E+00    1.9     0.00070564    -21712.0555196270 -2.06E+00
    12 OT DIIS     0.15E+00    1.9     0.00061613    -21713.9823221080 -1.93E+00
    13 OT DIIS     0.15E+00    1.9     0.00054921    -21715.3256652708 -1.34E+00
    14 OT DIIS     0.15E+00    1.9     0.00050840    -21716.2167951759 -8.91E-01
    15 OT DIIS     0.15E+00    1.9     0.00047051    -21717.0766523042 -8.60E-01
    16 OT DIIS     0.15E+00    1.9     0.00043117    -21717.9382436359 -8.62E-01
    17 OT DIIS     0.15E+00    1.9     0.00039239    -21718.8070194483 -8.69E-01
    18 OT DIIS     0.15E+00    1.9     0.00035782    -21719.4496007649 -6.43E-01
    19 OT DIIS     0.15E+00    1.9     0.00033321    -21719.9488251787 -4.99E-01
    20 OT DIIS     0.15E+00    1.9     0.00031443    -21720.3092114555 -3.60E-01
    21 OT DIIS     0.15E+00    1.9     0.00029793    -21720.6540362528 -3.45E-01
    22 OT DIIS     0.15E+00    1.9     0.00028238    -21720.9826750738 -3.29E-01
    23 OT DIIS     0.15E+00    1.9     0.00026544    -21721.3609611345 -3.78E-01
    24 OT DIIS     0.15E+00    1.9     0.00025101    -21721.6420645428 -2.81E-01
    25 OT DIIS     0.15E+00    1.9     0.00023662    -21721.9028023546 -2.61E-01
    26 OT DIIS     0.15E+00    1.9     0.00022597    -21722.1058780326 -2.03E-01
    27 OT DIIS     0.15E+00    1.9     0.00021478    -21722.3182219849 -2.12E-01
    28 OT DIIS     0.15E+00    1.9     0.00020529    -21722.5003635181 -1.82E-01
    29 OT DIIS     0.15E+00    2.0     0.00019604    -21722.6742436944 -1.74E-01
    30 OT DIIS     0.15E+00    1.9     0.00018704    -21722.8206819318 -1.46E-01

  Leaving inner SCF loop after reaching    30 steps.


  Electronic density on regular grids:      -3253.9999999965        0.0000000035
  Core density on regular grids:             3253.9999999998       -0.0000000002
  Total charge density on r-space grids:        0.0000000033
  Total charge density g-space grids:           0.0000000033

  Overlap energy of the core charge distribution:               0.00000177473249
  Self energy of the core charge distribution:             -32938.66937211190088
  Core Hamiltonian energy:                                   7375.32890629379835
  Hartree energy:                                            6041.46030141165193
  Exchange-correlation energy:                              -2216.98885022240302
  Dispersion energy:                                           16.04833092232492

  Total energy:                                            -21722.82068193180021

  outer SCF iter =    1 RMS gradient =   0.19E-03 energy =     -21722.8206819318

  ----------------------------------- OT ---------------------------------------
  Minimizer      : DIIS                : direct inversion
                                         in the iterative subspace
                                         using   7 DIIS vectors
                                         safer DIIS on
  Preconditioner : FULL_KINETIC        : inversion of T + eS
  Precond_solver : DEFAULT
  stepsize       :    0.15000000                  energy_gap     :    0.20000000
  eps_taylor     :   0.10000E-15                  max_taylor     :             4
  ----------------------------------- OT ---------------------------------------

  Step     Update method      Time    Convergence         Total energy    Change
  ------------------------------------------------------------------------------
     1 OT DIIS     0.15E+00    4.0     0.00021552    -21722.9510064499 -1.30E-01
     2 OT DIIS     0.15E+00    1.7     0.00020424    -21723.0008847586 -4.99E-02
     3 OT DIIS     0.15E+00    1.7     0.00020049    -21723.0355470768 -3.47E-02
     4 OT DIIS     0.15E+00    1.7     0.00018545    -21723.1214567678 -8.59E-02
     5 OT DIIS     0.15E+00    1.8     0.00017653    -21723.2021582978 -8.07E-02
     6 OT DIIS     0.15E+00    1.8     0.00016983    -21723.2915192745 -8.94E-02
     7 OT DIIS     0.15E+00    2.0     0.00016154    -21723.4324268529 -1.41E-01
     8 OT DIIS     0.15E+00    1.9     0.00015061    -21723.6256785715 -1.93E-01
     9 OT DIIS     0.15E+00    1.9     0.00014104    -21723.7862754926 -1.61E-01
    10 OT DIIS     0.15E+00    1.9     0.00013363    -21723.9272457154 -1.41E-01
    11 OT DIIS     0.15E+00    1.9     0.00012574    -21724.0619934534 -1.35E-01
    12 OT DIIS     0.15E+00    2.0     0.00011775    -21724.1744649750 -1.12E-01
    13 OT DIIS     0.15E+00    1.9     0.00011140    -21724.2536102872 -7.91E-02
    14 OT DIIS     0.15E+00    1.9     0.00010713    -21724.3170924665 -6.35E-02
    15 OT DIIS     0.15E+00    1.9     0.00010267    -21724.3720610556 -5.50E-02
    16 OT DIIS     0.15E+00    1.9     0.00009875    -21724.4172269665 -4.52E-02
    17 OT DIIS     0.15E+00    2.0     0.00009608    -21724.4528181886 -3.56E-02
    18 OT DIIS     0.15E+00    1.9     0.00009396    -21724.4905881198 -3.78E-02
    19 OT DIIS     0.15E+00    1.9     0.00009204    -21724.5257302283 -3.51E-02
    20 OT DIIS     0.15E+00    1.9     0.00008994    -21724.5540021817 -2.83E-02
    21 OT DIIS     0.15E+00    1.9     0.00008834    -21724.5770662995 -2.31E-02
    22 OT DIIS     0.15E+00    1.9     0.00008714    -21724.6020692379 -2.50E-02
    23 OT DIIS     0.15E+00    1.9     0.00008569    -21724.6307124112 -2.86E-02
    24 OT DIIS     0.15E+00    1.9     0.00008420    -21724.6575676714 -2.69E-02
    25 OT DIIS     0.15E+00    1.9     0.00008298    -21724.6808941515 -2.33E-02
    26 OT DIIS     0.15E+00    1.9     0.00008187    -21724.7054811529 -2.46E-02
    27 OT DIIS     0.15E+00    1.9     0.00008072    -21724.7312374422 -2.58E-02
    28 OT DIIS     0.15E+00    1.9     0.00007955    -21724.7573845667 -2.61E-02
    29 OT DIIS     0.15E+00    1.9     0.00007836    -21724.7837151426 -2.63E-02
    30 OT DIIS     0.15E+00    2.0     0.00007695    -21724.8115731985 -2.79E-02

  Leaving inner SCF loop after reaching    30 steps.


  Electronic density on regular grids:      -3253.9999999965        0.0000000035
  Core density on regular grids:             3253.9999999998       -0.0000000002
  Total charge density on r-space grids:        0.0000000033
  Total charge density g-space grids:           0.0000000033

  Overlap energy of the core charge distribution:               0.00000177473249
  Self energy of the core charge distribution:             -32938.66937211190088
  Core Hamiltonian energy:                                   7371.05135381985656
  Hartree energy:                                            6043.38454298287434
  Exchange-correlation energy:                              -2216.62029583577851
  Dispersion energy:                                           16.04219617167952

  Total energy:                                            -21724.81157319854174

  outer SCF iter =    2 RMS gradient =   0.77E-04 energy =     -21724.8115731985

  ----------------------------------- OT ---------------------------------------
  Minimizer      : DIIS                : direct inversion
                                         in the iterative subspace
                                         using   7 DIIS vectors
                                         safer DIIS on
  Preconditioner : FULL_KINETIC        : inversion of T + eS
  Precond_solver : DEFAULT
  stepsize       :    0.15000000                  energy_gap     :    0.20000000
  eps_taylor     :   0.10000E-15                  max_taylor     :             4
  ----------------------------------- OT ---------------------------------------

  Step     Update method      Time    Convergence         Total energy    Change
  ------------------------------------------------------------------------------
     1 OT DIIS     0.15E+00    4.0     0.00007637    -21724.8384014157 -2.68E-02
     2 OT DIIS     0.15E+00    1.7     0.00007580    -21724.8449595981 -6.56E-03
     3 OT DIIS     0.15E+00    1.7     0.00007442    -21724.8486732205 -3.71E-03
     4 OT DIIS     0.15E+00    1.7     0.00007237    -21724.8719650728 -2.33E-02
     5 OT DIIS     0.15E+00    1.7     0.00007046    -21724.8852106081 -1.32E-02
     6 OT DIIS     0.15E+00    1.7     0.00007004    -21724.9028572014 -1.76E-02
     7 OT DIIS     0.15E+00    1.8     0.00006678    -21724.9585281894 -5.57E-02
     8 OT DIIS     0.15E+00    2.0     0.00006403    -21725.0158178514 -5.73E-02
     9 OT DIIS     0.15E+00    1.9     0.00006149    -21725.0646955598 -4.89E-02
    10 OT DIIS     0.15E+00    1.9     0.00005887    -21725.1311666972 -6.65E-02
    11 OT DIIS     0.15E+00    1.9     0.00005473    -21725.2012433010 -7.01E-02
    12 OT DIIS     0.15E+00    2.0     0.00005065    -21725.2402524036 -3.90E-02
    13 OT DIIS     0.15E+00    1.9     0.00004876    -21725.2643127684 -2.41E-02
    14 OT DIIS     0.15E+00    1.9     0.00004717    -21725.2850497902 -2.07E-02
    15 OT DIIS     0.15E+00    1.9     0.00004502    -21725.3037603159 -1.87E-02
    16 OT DIIS     0.15E+00    1.9     0.00004343    -21725.3167364640 -1.30E-02
    17 OT DIIS     0.15E+00    1.9     0.00004244    -21725.3279380240 -1.12E-02
    18 OT DIIS     0.15E+00    1.9     0.00004162    -21725.3389917912 -1.11E-02
    19 OT DIIS     0.15E+00    1.9     0.00004036    -21725.3500597515 -1.11E-02
    20 OT DIIS     0.15E+00    1.9     0.00003958    -21725.3555924184 -5.53E-03
    21 OT DIIS     0.15E+00    1.9     0.00003916    -21725.3604606978 -4.87E-03
    22 OT DIIS     0.15E+00    1.9     0.00003869    -21725.3679000956 -7.44E-03
    23 OT DIIS     0.15E+00    2.0     0.00003806    -21725.3762578041 -8.36E-03
    24 OT DIIS     0.15E+00    1.9     0.00003750    -21725.3821626326 -5.90E-03
    25 OT DIIS     0.15E+00    1.9     0.00003714    -21725.3877081363 -5.55E-03
    26 OT DIIS     0.15E+00    1.9     0.00003673    -21725.3948013507 -7.09E-03
    27 OT DIIS     0.15E+00    1.9     0.00003626    -21725.4031555657 -8.35E-03
    28 OT DIIS     0.15E+00    1.9     0.00003594    -21725.4083004908 -5.14E-03
    29 OT DIIS     0.15E+00    1.9     0.00003554    -21725.4134636489 -5.16E-03
    30 OT DIIS     0.15E+00    1.9     0.00003517    -21725.4197481494 -6.28E-03

  Leaving inner SCF loop after reaching    30 steps.


  Electronic density on regular grids:      -3253.9999999965        0.0000000035
  Core density on regular grids:             3253.9999999998       -0.0000000002
  Total charge density on r-space grids:        0.0000000033
  Total charge density g-space grids:           0.0000000033

  Overlap energy of the core charge distribution:               0.00000177473249
  Self energy of the core charge distribution:             -32938.66937211190088
  Core Hamiltonian energy:                                   7369.46802216145443
  Hartree energy:                                            6044.20289819823847
  Exchange-correlation energy:                              -2216.45950659086520
  Dispersion energy:                                           16.03820841895182

  Total energy:                                            -21725.41974814939385

  outer SCF iter =    3 RMS gradient =   0.35E-04 energy =     -21725.4197481494

  ----------------------------------- OT ---------------------------------------
  Minimizer      : DIIS                : direct inversion
                                         in the iterative subspace
                                         using   7 DIIS vectors
                                         safer DIIS on
  Preconditioner : FULL_KINETIC        : inversion of T + eS
  Precond_solver : DEFAULT
  stepsize       :    0.15000000                  energy_gap     :    0.20000000
  eps_taylor     :   0.10000E-15                  max_taylor     :             4
  ----------------------------------- OT ---------------------------------------

  Step     Update method      Time    Convergence         Total energy    Change
  ------------------------------------------------------------------------------
     1 OT DIIS     0.15E+00    4.0     0.00003517    -21725.4263630123 -6.61E-03
     2 OT DIIS     0.15E+00    1.7     0.00003510    -21725.4277676231 -1.40E-03
     3 OT DIIS     0.15E+00    1.7     0.00003463    -21725.4285037905 -7.36E-04
     4 OT DIIS     0.15E+00    1.7     0.00003405    -21725.4337052160 -5.20E-03
     5 OT DIIS     0.15E+00    1.7     0.00003365    -21725.4362477406 -2.54E-03
     6 OT DIIS     0.15E+00    1.7     0.00003349    -21725.4405764109 -4.33E-03
     7 OT DIIS     0.15E+00    1.7     0.00003256    -21725.4548994035 -1.43E-02
     8 OT DIIS     0.15E+00    1.8     0.00003183    -21725.4689873800 -1.41E-02
     9 OT DIIS     0.15E+00    2.0     0.00003121    -21725.4821284814 -1.31E-02
    10 OT DIIS     0.15E+00    1.9     0.00003030    -21725.5066012613 -2.45E-02
    11 OT DIIS     0.15E+00    1.9     0.00002864    -21725.5366315572 -3.00E-02
    12 OT DIIS     0.15E+00    1.9     0.00002641    -21725.5567972539 -2.02E-02
    13 OT DIIS     0.15E+00    1.9     0.00002538    -21725.5701898279 -1.34E-02
    14 OT DIIS     0.15E+00    1.9     0.00002394    -21725.5840628022 -1.39E-02
    15 OT DIIS     0.15E+00    1.9     0.00002274    -21725.5959223737 -1.19E-02
    16 OT DIIS     0.15E+00    1.9     0.00002164    -21725.6027787732 -6.86E-03
    17 OT DIIS     0.15E+00    1.9     0.00002080    -21725.6087755697 -6.00E-03
    18 OT DIIS     0.15E+00    1.9     0.00002025    -21725.6122024274 -3.43E-03
    19 OT DIIS     0.15E+00    1.9     0.00001976    -21725.6142037526 -2.00E-03
    20 OT DIIS     0.15E+00    1.9     0.00001946    -21725.6157470227 -1.54E-03
    21 OT DIIS     0.15E+00    1.9     0.00001927    -21725.6171007375 -1.35E-03
    22 OT DIIS     0.15E+00    1.9     0.00001909    -21725.6185649489 -1.46E-03
    23 OT DIIS     0.15E+00    1.9     0.00001883    -21725.6201899342 -1.62E-03
    24 OT DIIS     0.15E+00    1.9     0.00001859    -21725.6214155707 -1.23E-03
    25 OT DIIS     0.15E+00    5.2     0.00001846    -21725.6224599088 -1.04E-03
    26 OT DIIS     0.15E+00    2.0     0.00001835    -21725.6239038172 -1.44E-03
    27 OT DIIS     0.15E+00    1.9     0.00001820    -21725.6261811642 -2.28E-03
    28 OT DIIS     0.15E+00    1.9     0.00001802    -21725.6278271250 -1.65E-03
    29 OT DIIS     0.15E+00    1.9     0.00001790    -21725.6292154148 -1.39E-03
    30 OT DIIS     0.15E+00    1.9     0.00001780    -21725.6305701681 -1.35E-03

  Leaving inner SCF loop after reaching    30 steps.


  Electronic density on regular grids:      -3253.9999999965        0.0000000035
  Core density on regular grids:             3253.9999999998       -0.0000000002
  Total charge density on r-space grids:        0.0000000033
  Total charge density g-space grids:           0.0000000033

  Overlap energy of the core charge distribution:               0.00000177473249
  Self energy of the core charge distribution:             -32938.66937211190088
  Core Hamiltonian energy:                                   7369.02867381289707
  Hartree energy:                                            6044.40616493660673
  Exchange-correlation energy:                              -2216.43361438909596
  Dispersion energy:                                           16.03757580864642

  Total energy:                                            -21725.63057016811945

  outer SCF iter =    4 RMS gradient =   0.18E-04 energy =     -21725.6305701681

  ----------------------------------- OT ---------------------------------------
  Minimizer      : DIIS                : direct inversion
                                         in the iterative subspace
                                         using   7 DIIS vectors
                                         safer DIIS on
  Preconditioner : FULL_KINETIC        : inversion of T + eS
  Precond_solver : DEFAULT
  stepsize       :    0.15000000                  energy_gap     :    0.20000000
  eps_taylor     :   0.10000E-15                  max_taylor     :             4
  ----------------------------------- OT ---------------------------------------

  Step     Update method      Time    Convergence         Total energy    Change
  ------------------------------------------------------------------------------
     1 OT DIIS     0.15E+00    4.0     0.00001783    -21725.6326923265 -2.12E-03
     2 OT DIIS     0.15E+00    1.7     0.00001780    -21725.6330551888 -3.63E-04
     3 OT DIIS     0.15E+00    1.7     0.00001764    -21725.6332497884 -1.95E-04
     4 OT DIIS     0.15E+00    1.7     0.00001752    -21725.6343216074 -1.07E-03
     5 OT DIIS     0.15E+00    1.7     0.00001730    -21725.6353816155 -1.06E-03
     6 OT DIIS     0.15E+00    1.7     0.00001729    -21725.6362994913 -9.18E-04
     7 OT DIIS     0.15E+00    1.7     0.00001692    -21725.6409555135 -4.66E-03
     8 OT DIIS     0.15E+00    1.7     0.00001667    -21725.6444491428 -3.49E-03
     9 OT DIIS     0.15E+00    1.7     0.00001642    -21725.6481607177 -3.71E-03
    10 OT DIIS     0.15E+00    1.7     0.00001625    -21725.6543363580 -6.18E-03
    11 OT DIIS     0.15E+00    1.9     0.00001537    -21725.6656472593 -1.13E-02
    12 OT DIIS     0.15E+00    1.9     0.00001474    -21725.6725772149 -6.93E-03
    13 OT DIIS     0.15E+00    1.9     0.00001420    -21725.6774614911 -4.88E-03
    14 OT DIIS     0.15E+00    1.9     0.00001361    -21725.6857500394 -8.29E-03
    15 OT DIIS     0.15E+00    3.9     0.00001266    -21725.6929941132 -7.24E-03
    16 OT DIIS     0.15E+00    1.9     0.00001180    -21725.6977422394 -4.75E-03
    17 OT DIIS     0.15E+00    1.9     0.00001130    -21725.7004190628 -2.68E-03
    18 OT DIIS     0.15E+00    1.9     0.00001102    -21725.7018426749 -1.42E-03
    19 OT DIIS     0.15E+00    1.9     0.00001071    -21725.7026613696 -8.19E-04
    20 OT DIIS     0.15E+00    1.9     0.00001062    -21725.7041552157 -1.49E-03
    21 OT DIIS     0.15E+00    1.9     0.00001041    -21725.7044833593 -3.28E-04
    22 OT DIIS     0.15E+00    2.0     0.00001026    -21725.7056853290 -1.20E-03
    23 OT DIIS     0.15E+00    1.9     0.00001006    -21725.7064504629 -7.65E-04
    24 OT DIIS     0.15E+00    1.9     0.00000983    -21725.7073453003 -8.95E-04
    25 OT DIIS     0.15E+00    1.9     0.00000969    -21725.7081405122 -7.95E-04
    26 OT DIIS     0.15E+00    1.9     0.00000960    -21725.7089896390 -8.49E-04
    27 OT DIIS     0.15E+00    3.5     0.00000946    -21725.7098204506 -8.31E-04
    28 OT DIIS     0.15E+00    1.9     0.00000939    -21725.7105045187 -6.84E-04
    29 OT DIIS     0.15E+00    1.9     0.00000933    -21725.7108643547 -3.60E-04
    30 OT DIIS     0.15E+00    1.9     0.00000927    -21725.7114343741 -5.70E-04

  Leaving inner SCF loop after reaching    30 steps.


  Electronic density on regular grids:      -3253.9999999965        0.0000000035
  Core density on regular grids:             3253.9999999998       -0.0000000002
  Total charge density on r-space grids:        0.0000000033
  Total charge density g-space grids:           0.0000000033

  Overlap energy of the core charge distribution:               0.00000177473249
  Self energy of the core charge distribution:             -32938.66937211190088
  Core Hamiltonian energy:                                   7368.79268247852724
  Hartree energy:                                            6044.53363584918225
  Exchange-correlation energy:                              -2216.40521956301563
  Dispersion energy:                                           16.03683719841907

  Total energy:                                            -21725.71143437405772

  outer SCF iter =    5 RMS gradient =   0.93E-05 energy =     -21725.7114343741

  ----------------------------------- OT ---------------------------------------
  Minimizer      : DIIS                : direct inversion
                                         in the iterative subspace
                                         using   7 DIIS vectors
                                         safer DIIS on
  Preconditioner : FULL_KINETIC        : inversion of T + eS
  Precond_solver : DEFAULT
  stepsize       :    0.15000000                  energy_gap     :    0.20000000
  eps_taylor     :   0.10000E-15                  max_taylor     :             4
  ----------------------------------- OT ---------------------------------------

  Step     Update method      Time    Convergence         Total energy    Change
  ------------------------------------------------------------------------------
     1 OT DIIS     0.15E+00    4.0     0.00000927    -21725.7120275149 -5.93E-04
     2 OT DIIS     0.15E+00    1.7     0.00000937    -21725.7121248566 -9.73E-05
     3 OT DIIS     0.15E+00    1.7     0.00000916    -21725.7121632461 -3.84E-05
     4 OT DIIS     0.15E+00    1.7     0.00000911    -21725.7124321343 -2.69E-04
     5 OT DIIS     0.15E+00    1.7     0.00000902    -21725.7127743295 -3.42E-04
     6 OT DIIS     0.15E+00    1.7     0.00000899    -21725.7132330077 -4.59E-04
     7 OT DIIS     0.15E+00    1.7     0.00000887    -21725.7143342249 -1.10E-03
     8 OT DIIS     0.15E+00    1.7     0.00000882    -21725.7149834531 -6.49E-04
     9 OT DIIS     0.15E+00    1.7     0.00000876    -21725.7156615377 -6.78E-04
    10 OT DIIS     0.15E+00    1.7     0.00000874    -21725.7170228152 -1.36E-03
    11 OT DIIS     0.15E+00    1.7     0.00000845    -21725.7198266663 -2.80E-03
    12 OT DIIS     0.15E+00    1.8     0.00000827    -21725.7219185893 -2.09E-03
    13 OT DIIS     0.15E+00    1.8     0.00000809    -21725.7236688695 -1.75E-03
    14 OT DIIS     0.15E+00    1.9     0.00000791    -21725.7260281847 -2.36E-03
    15 OT DIIS     0.15E+00    1.9     0.00000753    -21725.7291468067 -3.12E-03
    16 OT DIIS     0.15E+00    1.9     0.00000729    -21725.7311241734 -1.98E-03
    17 OT DIIS     0.15E+00    1.9     0.00000715    -21725.7322470442 -1.12E-03
    18 OT DIIS     0.15E+00    1.9     0.00000706    -21725.7331796301 -9.33E-04
    19 OT DIIS     0.15E+00    1.9     0.00000691    -21725.7337659604 -5.86E-04
    20 OT DIIS     0.15E+00    1.9     0.00000683    -21725.7342092255 -4.43E-04
    21 OT DIIS     0.15E+00    1.9     0.00000679    -21725.7345788480 -3.70E-04
    22 OT DIIS     0.15E+00    1.9     0.00000674    -21725.7351396495 -5.61E-04
    23 OT DIIS     0.15E+00    1.9     0.00000661    -21725.7356407442 -5.01E-04
    24 OT DIIS     0.15E+00    1.9     0.00000651    -21725.7361572783 -5.17E-04
    25 OT DIIS     0.15E+00    1.9     0.00000646    -21725.7365095014 -3.52E-04
    26 OT DIIS     0.15E+00    1.9     0.00000643    -21725.7368276004 -3.18E-04
    27 OT DIIS     0.15E+00    1.9     0.00000637    -21725.7371828717 -3.55E-04
    28 OT DIIS     0.15E+00    1.9     0.00000631    -21725.7374612612 -2.78E-04
    29 OT DIIS     0.15E+00    1.9     0.00000628    -21725.7376186909 -1.57E-04
    30 OT DIIS     0.15E+00    2.0     0.00000626    -21725.7377946169 -1.76E-04

  Leaving inner SCF loop after reaching    30 steps.


  Electronic density on regular grids:      -3253.9999999965        0.0000000035
  Core density on regular grids:             3253.9999999998       -0.0000000002
  Total charge density on r-space grids:        0.0000000033
  Total charge density g-space grids:           0.0000000033

  Overlap energy of the core charge distribution:               0.00000177473249
  Self energy of the core charge distribution:             -32938.66937211190088
  Core Hamiltonian energy:                                   7368.68478780262922
  Hartree energy:                                            6044.59854958801407
  Exchange-correlation energy:                              -2216.38819925812550
  Dispersion energy:                                           16.03643758779620

  Total energy:                                            -21725.73779461685263

  outer SCF iter =    6 RMS gradient =   0.63E-05 energy =     -21725.7377946169

  ----------------------------------- OT ---------------------------------------
  Minimizer      : DIIS                : direct inversion
                                         in the iterative subspace
                                         using   7 DIIS vectors
                                         safer DIIS on
  Preconditioner : FULL_KINETIC        : inversion of T + eS
  Precond_solver : DEFAULT
  stepsize       :    0.15000000                  energy_gap     :    0.20000000
  eps_taylor     :   0.10000E-15                  max_taylor     :             4
  ----------------------------------- OT ---------------------------------------

  Step     Update method      Time    Convergence         Total energy    Change
  ------------------------------------------------------------------------------
     1 OT DIIS     0.15E+00    4.0     0.00000625    -21725.7379726684 -1.78E-04
     2 OT DIIS     0.15E+00    1.7     0.00000626    -21725.7380173946 -4.47E-05
     3 OT DIIS     0.15E+00    1.7     0.00000621    -21725.7380378046 -2.04E-05
     4 OT DIIS     0.15E+00    1.7     0.00000619    -21725.7381709067 -1.33E-04
     5 OT DIIS     0.15E+00    1.7     0.00000615    -21725.7383607984 -1.90E-04
     6 OT DIIS     0.15E+00    1.7     0.00000615    -21725.7384765192 -1.16E-04
     7 OT DIIS     0.15E+00    1.7     0.00000610    -21725.7389631823 -4.87E-04
     8 OT DIIS     0.15E+00    1.7     0.00000605    -21725.7393903658 -4.27E-04
     9 OT DIIS     0.15E+00    1.7     0.00000602    -21725.7397824279 -3.92E-04
    10 OT DIIS     0.15E+00    1.7     0.00000600    -21725.7402638059 -4.81E-04
    11 OT DIIS     0.15E+00    1.7     0.00000588    -21725.7418714321 -1.61E-03
    12 OT DIIS     0.15E+00    1.7     0.00000577    -21725.7432300074 -1.36E-03
    13 OT DIIS     0.15E+00    1.7     0.00000569    -21725.7441675420 -9.38E-04
    14 OT DIIS     0.15E+00    1.8     0.00000564    -21725.7450201262 -8.53E-04
    15 OT DIIS     0.15E+00    2.0     0.00000550    -21725.7465844446 -1.56E-03
    16 OT DIIS     0.15E+00    1.9     0.00000538    -21725.7476138708 -1.03E-03
    17 OT DIIS     0.15E+00    2.0     0.00000531    -21725.7483204773 -7.07E-04
    18 OT DIIS     0.15E+00    1.9     0.00000527    -21725.7488202161 -5.00E-04
    19 OT DIIS     0.15E+00    1.9     0.00000520    -21725.7493233806 -5.03E-04
    20 OT DIIS     0.15E+00    1.9     0.00000516    -21725.7495687389 -2.45E-04
    21 OT DIIS     0.15E+00    1.9     0.00000514    -21725.7498130175 -2.44E-04
    22 OT DIIS     0.15E+00    1.9     0.00000512    -21725.7500189138 -2.06E-04
    23 OT DIIS     0.15E+00    1.9     0.00000502    -21725.7507332634 -7.14E-04
    24 OT DIIS     0.15E+00    1.9     0.00000497    -21725.7511123407 -3.79E-04
    25 OT DIIS     0.15E+00    1.9     0.00000492    -21725.7514992938 -3.87E-04
    26 OT DIIS     0.15E+00    1.9     0.00000490    -21725.7517584196 -2.59E-04
    27 OT DIIS     0.15E+00    1.9     0.00000486    -21725.7520425810 -2.84E-04
    28 OT DIIS     0.15E+00    1.9     0.00000483    -21725.7522560292 -2.13E-04
    29 OT DIIS     0.15E+00    3.3     0.00000481    -21725.7524289330 -1.73E-04
    30 OT DIIS     0.15E+00    1.9     0.00000480    -21725.7525220222 -9.31E-05

  Leaving inner SCF loop after reaching    30 steps.


  Electronic density on regular grids:      -3253.9999999965        0.0000000035
  Core density on regular grids:             3253.9999999998       -0.0000000002
  Total charge density on r-space grids:        0.0000000033
  Total charge density g-space grids:           0.0000000033

  Overlap energy of the core charge distribution:               0.00000177473249
  Self energy of the core charge distribution:             -32938.66937211190088
  Core Hamiltonian energy:                                   7368.57372364717594
  Hartree energy:                                            6044.67286718682044
  Exchange-correlation energy:                              -2216.36562630219441
  Dispersion energy:                                           16.03588378317099

  Total energy:                                            -21725.75252202220145

  outer SCF iter =    7 RMS gradient =   0.48E-05 energy =     -21725.7525220222

  ----------------------------------- OT ---------------------------------------
  Minimizer      : DIIS                : direct inversion
                                         in the iterative subspace
                                         using   7 DIIS vectors
                                         safer DIIS on
  Preconditioner : FULL_KINETIC        : inversion of T + eS
  Precond_solver : DEFAULT
  stepsize       :    0.15000000                  energy_gap     :    0.20000000
  eps_taylor     :   0.10000E-15                  max_taylor     :             4
  ----------------------------------- OT ---------------------------------------

  Step     Update method      Time    Convergence         Total energy    Change
  ------------------------------------------------------------------------------
     1 OT DIIS     0.15E+00    4.0     0.00000476    -21725.7527645531 -2.43E-04
     2 OT DIIS     0.15E+00    1.7     0.00000477    -21725.7527905556 -2.60E-05
     3 OT DIIS     0.15E+00    1.7     0.00000474    -21725.7528027915 -1.22E-05
     4 OT DIIS     0.15E+00    1.7     0.00000473    -21725.7528613830 -5.86E-05
     5 OT DIIS     0.15E+00    1.7     0.00000470    -21725.7529840108 -1.23E-04
     6 OT DIIS     0.15E+00    1.7     0.00000469    -21725.7530306858 -4.67E-05
     7 OT DIIS     0.15E+00    1.7     0.00000468    -21725.7532484475 -2.18E-04
     8 OT DIIS     0.15E+00    1.7     0.00000465    -21725.7534372170 -1.89E-04
     9 OT DIIS     0.15E+00    1.7     0.00000464    -21725.7536253197 -1.88E-04
    10 OT DIIS     0.15E+00    1.7     0.00000462    -21725.7539444265 -3.19E-04
    11 OT DIIS     0.15E+00    1.7     0.00000458    -21725.7548512124 -9.07E-04
    12 OT DIIS     0.15E+00    1.7     0.00000452    -21725.7554326220 -5.81E-04
    13 OT DIIS     0.15E+00    1.7     0.00000449    -21725.7559308320 -4.98E-04
    14 OT DIIS     0.15E+00    1.7     0.00000447    -21725.7563952613 -4.64E-04
    15 OT DIIS     0.15E+00    1.7     0.00000440    -21725.7573779699 -9.83E-04
    16 OT DIIS     0.15E+00    1.8     0.00000432    -21725.7581710415 -7.93E-04
    17 OT DIIS     0.15E+00    1.8     0.00000427    -21725.7587604856 -5.89E-04
    18 OT DIIS     0.15E+00    1.8     0.00000425    -21725.7592019368 -4.41E-04
    19 OT DIIS     0.15E+00    2.0     0.00000419    -21725.7596456429 -4.44E-04
    20 OT DIIS     0.15E+00    1.9     0.00000417    -21725.7598995957 -2.54E-04
    21 OT DIIS     0.15E+00    1.9     0.00000415    -21725.7601116917 -2.12E-04
    22 OT DIIS     0.15E+00    1.9     0.00000413    -21725.7603152302 -2.04E-04
    23 OT DIIS     0.15E+00    1.9     0.00000408    -21725.7606055195 -2.90E-04
    24 OT DIIS     0.15E+00    1.9     0.00000404    -21725.7607938222 -1.88E-04
    25 OT DIIS     0.15E+00    1.9     0.00000402    -21725.7609494819 -1.56E-04
    26 OT DIIS     0.15E+00    1.9     0.00000401    -21725.7610868354 -1.37E-04
    27 OT DIIS     0.15E+00    1.9     0.00000400    -21725.7612501877 -1.63E-04
    28 OT DIIS     0.15E+00    1.9     0.00000397    -21725.7613434753 -9.33E-05
    29 OT DIIS     0.15E+00    1.9     0.00000396    -21725.7614040412 -6.06E-05
    30 OT DIIS     0.15E+00    1.9     0.00000395    -21725.7614691907 -6.51E-05

  Leaving inner SCF loop after reaching    30 steps.


  Electronic density on regular grids:      -3253.9999999965        0.0000000035
  Core density on regular grids:             3253.9999999998       -0.0000000002
  Total charge density on r-space grids:        0.0000000033
  Total charge density g-space grids:           0.0000000033

  Overlap energy of the core charge distribution:               0.00000177473249
  Self energy of the core charge distribution:             -32938.66937211190088
  Core Hamiltonian energy:                                   7368.49112352115662
  Hartree energy:                                            6044.72944642290167
  Exchange-correlation energy:                              -2216.34814233591442
  Dispersion energy:                                           16.03547353828140

  Total energy:                                            -21725.76146919074745

  outer SCF iter =    8 RMS gradient =   0.40E-05 energy =     -21725.7614691907

  ----------------------------------- OT ---------------------------------------
  Minimizer      : DIIS                : direct inversion
                                         in the iterative subspace
                                         using   7 DIIS vectors
                                         safer DIIS on
  Preconditioner : FULL_KINETIC        : inversion of T + eS
  Precond_solver : DEFAULT
  stepsize       :    0.15000000                  energy_gap     :    0.20000000
  eps_taylor     :   0.10000E-15                  max_taylor     :             4
  ----------------------------------- OT ---------------------------------------

  Step     Update method      Time    Convergence         Total energy    Change
  ------------------------------------------------------------------------------
     1 OT DIIS     0.15E+00    4.0     0.00000394    -21725.7616062640 -1.37E-04
     2 OT DIIS     0.15E+00    1.7     0.00000397    -21725.7616240630 -1.78E-05
     3 OT DIIS     0.15E+00    1.7     0.00000392    -21725.7616307735 -6.71E-06
     4 OT DIIS     0.15E+00    1.7     0.00000392    -21725.7616622464 -3.15E-05
     5 OT DIIS     0.15E+00    1.7     0.00000391    -21725.7617574241 -9.52E-05
     6 OT DIIS     0.15E+00    1.7     0.00000390    -21725.7617976443 -4.02E-05
     7 OT DIIS     0.15E+00    1.7     0.00000389    -21725.7619629145 -1.65E-04
     8 OT DIIS     0.15E+00    1.7     0.00000387    -21725.7622097215 -2.47E-04
     9 OT DIIS     0.15E+00    1.7     0.00000386    -21725.7623741888 -1.64E-04
    10 OT DIIS     0.15E+00    1.7     0.00000385    -21725.7625413777 -1.67E-04
    11 OT DIIS     0.15E+00    1.7     0.00000383    -21725.7631267108 -5.85E-04
    12 OT DIIS     0.15E+00    1.7     0.00000377    -21725.7638293542 -7.03E-04
    13 OT DIIS     0.15E+00    1.7     0.00000374    -21725.7642508033 -4.21E-04
    14 OT DIIS     0.15E+00    1.7     0.00000372    -21725.7645958927 -3.45E-04
    15 OT DIIS     0.15E+00    1.7     0.00000368    -21725.7652219352 -6.26E-04
    16 OT DIIS     0.15E+00    1.8     0.00000362    -21725.7658944794 -6.73E-04
    17 OT DIIS     0.15E+00    1.8     0.00000359    -21725.7663641489 -4.70E-04
    18 OT DIIS     0.15E+00    1.8     0.00000355    -21725.7667199434 -3.56E-04
    19 OT DIIS     0.15E+00    1.8     0.00000352    -21725.7671187674 -3.99E-04
    20 OT DIIS     0.15E+00    1.9     0.00000348    -21725.7673615890 -2.43E-04
    21 OT DIIS     0.15E+00    1.9     0.00000346    -21725.7675860985 -2.25E-04
    22 OT DIIS     0.15E+00    1.9     0.00000344    -21725.7677602048 -1.74E-04
    23 OT DIIS     0.15E+00    1.9     0.00000342    -21725.7680442939 -2.84E-04
    24 OT DIIS     0.15E+00    1.9     0.00000338    -21725.7682386290 -1.94E-04
    25 OT DIIS     0.15E+00    1.9     0.00000335    -21725.7684136730 -1.75E-04
    26 OT DIIS     0.15E+00    1.9     0.00000334    -21725.7685288566 -1.15E-04
    27 OT DIIS     0.15E+00    1.9     0.00000333    -21725.7686633123 -1.34E-04
    28 OT DIIS     0.15E+00    1.9     0.00000331    -21725.7687404207 -7.71E-05
    29 OT DIIS     0.15E+00    1.9     0.00000329    -21725.7688069232 -6.65E-05
    30 OT DIIS     0.15E+00    1.9     0.00000329    -21725.7688375555 -3.06E-05

  Leaving inner SCF loop after reaching    30 steps.


  Electronic density on regular grids:      -3253.9999999965        0.0000000035
  Core density on regular grids:             3253.9999999998       -0.0000000002
  Total charge density on r-space grids:        0.0000000033
  Total charge density g-space grids:           0.0000000033

  Overlap energy of the core charge distribution:               0.00000177473249
  Self energy of the core charge distribution:             -32938.66937211190088
  Core Hamiltonian energy:                                   7368.39887803499005
  Hartree energy:                                            6044.79392923827163
  Exchange-correlation energy:                              -2216.32724667778166
  Dispersion energy:                                           16.03497218623557

  Total energy:                                            -21725.76883755545350

  outer SCF iter =    9 RMS gradient =   0.33E-05 energy =     -21725.7688375555

  ----------------------------------- OT ---------------------------------------
  Minimizer      : DIIS                : direct inversion
                                         in the iterative subspace
                                         using   7 DIIS vectors
                                         safer DIIS on
  Preconditioner : FULL_KINETIC        : inversion of T + eS
  Precond_solver : DEFAULT
  stepsize       :    0.15000000                  energy_gap     :    0.20000000
  eps_taylor     :   0.10000E-15                  max_taylor     :             4
  ----------------------------------- OT ---------------------------------------

  Step     Update method      Time    Convergence         Total energy    Change
  ------------------------------------------------------------------------------
     1 OT DIIS     0.15E+00    4.0     0.00000328    -21725.7688999827 -6.24E-05
     2 OT DIIS     0.15E+00    1.7     0.00000329    -21725.7689123388 -1.24E-05
     3 OT DIIS     0.15E+00    1.7     0.00000327    -21725.7689176084 -5.27E-06
     4 OT DIIS     0.15E+00    1.7     0.00000326    -21725.7689476872 -3.01E-05
     5 OT DIIS     0.15E+00    1.7     0.00000325    -21725.7690071067 -5.94E-05
     6 OT DIIS     0.15E+00    1.7     0.00000324    -21725.7690335748 -2.65E-05
     7 OT DIIS     0.15E+00    1.7     0.00000324    -21725.7691409003 -1.07E-04
     8 OT DIIS     0.15E+00    1.7     0.00000322    -21725.7692809596 -1.40E-04
     9 OT DIIS     0.15E+00    1.7     0.00000321    -21725.7693666435 -8.57E-05
    10 OT DIIS     0.15E+00    1.7     0.00000321    -21725.7694463884 -7.97E-05
    11 OT DIIS     0.15E+00    1.7     0.00000319    -21725.7697581993 -3.12E-04
    12 OT DIIS     0.15E+00    1.7     0.00000316    -21725.7700750894 -3.17E-04
    13 OT DIIS     0.15E+00    1.7     0.00000315    -21725.7702911863 -2.16E-04
    14 OT DIIS     0.15E+00    1.7     0.00000313    -21725.7704799946 -1.89E-04
    15 OT DIIS     0.15E+00    1.7     0.00000310    -21725.7708671548 -3.87E-04
    16 OT DIIS     0.15E+00    1.7     0.00000307    -21725.7712259167 -3.59E-04
    17 OT DIIS     0.15E+00    1.7     0.00000306    -21725.7714472564 -2.21E-04
    18 OT DIIS     0.15E+00    1.7     0.00000304    -21725.7716449373 -1.98E-04
    19 OT DIIS     0.15E+00    1.7     0.00000301    -21725.7718891620 -2.44E-04
    20 OT DIIS     0.15E+00    1.7     0.00000299    -21725.7720614240 -1.72E-04
    21 OT DIIS     0.15E+00    1.7     0.00000298    -21725.7721864986 -1.25E-04
    22 OT DIIS     0.15E+00    1.7     0.00000297    -21725.7723202238 -1.34E-04
    23 OT DIIS     0.15E+00    1.8     0.00000294    -21725.7724770938 -1.57E-04
    24 OT DIIS     0.15E+00    1.8     0.00000292    -21725.7726177017 -1.41E-04
    25 OT DIIS     0.15E+00    1.8     0.00000291    -21725.7726989115 -8.12E-05
    26 OT DIIS     0.15E+00    1.8     0.00000290    -21725.7727720626 -7.32E-05
    27 OT DIIS     0.15E+00    1.8     0.00000289    -21725.7728652385 -9.32E-05
    28 OT DIIS     0.15E+00    1.8     0.00000287    -21725.7729694273 -1.04E-04
    29 OT DIIS     0.15E+00    1.8     0.00000287    -21725.7730123347 -4.29E-05
    30 OT DIIS     0.15E+00    1.8     0.00000287    -21725.7730510157 -3.87E-05

  Leaving inner SCF loop after reaching    30 steps.


  Electronic density on regular grids:      -3253.9999999965        0.0000000035
  Core density on regular grids:             3253.9999999998       -0.0000000002
  Total charge density on r-space grids:        0.0000000033
  Total charge density g-space grids:           0.0000000033

  Overlap energy of the core charge distribution:               0.00000177473249
  Self energy of the core charge distribution:             -32938.66937211190088
  Core Hamiltonian energy:                                   7368.33816527473937
  Hartree energy:                                            6044.83661745307290
  Exchange-correlation energy:                              -2216.31310206865192
  Dispersion energy:                                           16.03463866230249

  Total energy:                                            -21725.77305101570528

  outer SCF iter =   10 RMS gradient =   0.29E-05 energy =     -21725.7730510157

  ----------------------------------- OT ---------------------------------------
  Minimizer      : DIIS                : direct inversion
                                         in the iterative subspace
                                         using   7 DIIS vectors
                                         safer DIIS on
  Preconditioner : FULL_KINETIC        : inversion of T + eS
  Precond_solver : DEFAULT
  stepsize       :    0.15000000                  energy_gap     :    0.20000000
  eps_taylor     :   0.10000E-15                  max_taylor     :             4
  ----------------------------------- OT ---------------------------------------

  Step     Update method      Time    Convergence         Total energy    Change
  ------------------------------------------------------------------------------
     1 OT DIIS     0.15E+00    3.8     0.00000286    -21725.7731123383 -6.13E-05
     2 OT DIIS     0.15E+00    1.7     0.00000287    -21725.7731216828 -9.34E-06
     3 OT DIIS     0.15E+00    1.7     0.00000284    -21725.7731252729 -3.59E-06
     4 OT DIIS     0.15E+00    1.7     0.00000284    -21725.7731421138 -1.68E-05
     5 OT DIIS     0.15E+00    1.7     0.00000283    -21725.7732045743 -6.25E-05
     6 OT DIIS     0.15E+00    1.7     0.00000282    -21725.7732261268 -2.16E-05
     7 OT DIIS     0.15E+00    1.7     0.00000282    -21725.7732876780 -6.16E-05
     8 OT DIIS     0.15E+00    1.7     0.00000280    -21725.7734131493 -1.25E-04
     9 OT DIIS     0.15E+00    1.7     0.00000280    -21725.7734979189 -8.48E-05
    10 OT DIIS     0.15E+00    1.7     0.00000279    -21725.7735803262 -8.24E-05
    11 OT DIIS     0.15E+00    1.7     0.00000278    -21725.7738456178 -2.65E-04
    12 OT DIIS     0.15E+00    1.8     0.00000275    -21725.7740755411 -2.30E-04
    13 OT DIIS     0.15E+00    1.7     0.00000274    -21725.7742204976 -1.45E-04
    14 OT DIIS     0.15E+00    1.7     0.00000273    -21725.7743452774 -1.25E-04
    15 OT DIIS     0.15E+00    1.7     0.00000271    -21725.7746333595 -2.88E-04
    16 OT DIIS     0.15E+00    1.7     0.00000268    -21725.7749876860 -3.54E-04
    17 OT DIIS     0.15E+00    1.7     0.00000265    -21725.7752290131 -2.41E-04
    18 OT DIIS     0.15E+00    1.7     0.00000263    -21725.7754257815 -1.97E-04
    19 OT DIIS     0.15E+00    1.7     0.00000261    -21725.7756797843 -2.54E-04
    20 OT DIIS     0.15E+00    1.7     0.00000258    -21725.7758502270 -1.70E-04
    21 OT DIIS     0.15E+00    1.7     0.00000257    -21725.7759955070 -1.45E-04
    22 OT DIIS     0.15E+00    1.7     0.00000255    -21725.7761108459 -1.15E-04
    23 OT DIIS     0.15E+00    1.7     0.00000253    -21725.7762549571 -1.44E-04
    24 OT DIIS     0.15E+00    1.8     0.00000250    -21725.7763427439 -8.78E-05
    25 OT DIIS     0.15E+00    1.8     0.00000249    -21725.7764058172 -6.31E-05
    26 OT DIIS     0.15E+00    1.8     0.00000248    -21725.7764579229 -5.21E-05
    27 OT DIIS     0.15E+00    1.8     0.00000248    -21725.7765339357 -7.60E-05
    28 OT DIIS     0.15E+00    1.8     0.00000246    -21725.7765759711 -4.20E-05
    29 OT DIIS     0.15E+00    1.8     0.00000245    -21725.7766050479 -2.91E-05
    30 OT DIIS     0.15E+00    1.8     0.00000245    -21725.7766275713 -2.25E-05

  Leaving inner SCF loop after reaching    30 steps.


  Electronic density on regular grids:      -3253.9999999965        0.0000000035
  Core density on regular grids:             3253.9999999998       -0.0000000002
  Total charge density on r-space grids:        0.0000000033
  Total charge density g-space grids:           0.0000000033

  Overlap energy of the core charge distribution:               0.00000177473249
  Self energy of the core charge distribution:             -32938.66937211190088
  Core Hamiltonian energy:                                   7368.27277546006553
  Hartree energy:                                            6044.88294082200082
  Exchange-correlation energy:                              -2216.29723025488238
  Dispersion energy:                                           16.03425673867019

  Total energy:                                            -21725.77662757132202

  outer SCF iter =   11 RMS gradient =   0.25E-05 energy =     -21725.7766275713

  ----------------------------------- OT ---------------------------------------
  Minimizer      : DIIS                : direct inversion
                                         in the iterative subspace
                                         using   7 DIIS vectors
                                         safer DIIS on
  Preconditioner : FULL_KINETIC        : inversion of T + eS
  Precond_solver : DEFAULT
  stepsize       :    0.15000000                  energy_gap     :    0.20000000
  eps_taylor     :   0.10000E-15                  max_taylor     :             4
  ----------------------------------- OT ---------------------------------------

  Step     Update method      Time    Convergence         Total energy    Change
  ------------------------------------------------------------------------------
     1 OT DIIS     0.15E+00    3.8     0.00000244    -21725.7766772407 -4.97E-05
     2 OT DIIS     0.15E+00    1.7     0.00000246    -21725.7766840691 -6.83E-06
     3 OT DIIS     0.15E+00    1.7     0.00000243    -21725.7766866168 -2.55E-06
     4 OT DIIS     0.15E+00    1.7     0.00000243    -21725.7767003997 -1.38E-05
     5 OT DIIS     0.15E+00    1.7     0.00000242    -21725.7767379976 -3.76E-05
     6 OT DIIS     0.15E+00    1.7     0.00000242    -21725.7767525596 -1.46E-05
     7 OT DIIS     0.15E+00    1.7     0.00000241    -21725.7768019221 -4.94E-05
     8 OT DIIS     0.15E+00    1.7     0.00000240    -21725.7769104155 -1.08E-04
     9 OT DIIS     0.15E+00    1.7     0.00000239    -21725.7769840188 -7.36E-05
    10 OT DIIS     0.15E+00    1.7     0.00000239    -21725.7770518996 -6.79E-05
    11 OT DIIS     0.15E+00    1.7     0.00000237    -21725.7773371300 -2.85E-04
    12 OT DIIS     0.15E+00    1.7     0.00000234    -21725.7775487892 -2.12E-04
    13 OT DIIS     0.15E+00    1.7     0.00000233    -21725.7776748366 -1.26E-04
    14 OT DIIS     0.15E+00    1.7     0.00000233    -21725.7777823069 -1.07E-04
    15 OT DIIS     0.15E+00    1.7     0.00000231    -21725.7780100267 -2.28E-04
    16 OT DIIS     0.15E+00    1.7     0.00000227    -21725.7782703048 -2.60E-04
    17 OT DIIS     0.15E+00    1.7     0.00000225    -21725.7785055867 -2.35E-04
    18 OT DIIS     0.15E+00    1.7     0.00000222    -21725.7786974054 -1.92E-04
    19 OT DIIS     0.15E+00    1.7     0.00000219    -21725.7789652083 -2.68E-04
    20 OT DIIS     0.15E+00    1.8     0.00000217    -21725.7791126939 -1.47E-04
    21 OT DIIS     0.15E+00    1.7     0.00000215    -21725.7792213499 -1.09E-04
    22 OT DIIS     0.15E+00    1.7     0.00000213    -21725.7792987010 -7.74E-05
    23 OT DIIS     0.15E+00    1.7     0.00000212    -21725.7793832206 -8.45E-05
    24 OT DIIS     0.15E+00    1.7     0.00000209    -21725.7794310460 -4.78E-05
    25 OT DIIS     0.15E+00    1.7     0.00000208    -21725.7794715285 -4.05E-05
    26 OT DIIS     0.15E+00    1.8     0.00000208    -21725.7795099339 -3.84E-05
    27 OT DIIS     0.15E+00    1.8     0.00000206    -21725.7795553406 -4.54E-05
    28 OT DIIS     0.15E+00    1.8     0.00000206    -21725.7795722633 -1.69E-05
    29 OT DIIS     0.15E+00    1.8     0.00000205    -21725.7795857013 -1.34E-05
    30 OT DIIS     0.15E+00    1.8     0.00000205    -21725.7795944730 -8.77E-06

  Leaving inner SCF loop after reaching    30 steps.


  Electronic density on regular grids:      -3253.9999999965        0.0000000035
  Core density on regular grids:             3253.9999999998       -0.0000000002
  Total charge density on r-space grids:        0.0000000033
  Total charge density g-space grids:           0.0000000033

  Overlap energy of the core charge distribution:               0.00000177473249
  Self energy of the core charge distribution:             -32938.66937211190088
  Core Hamiltonian energy:                                   7368.20755664994704
  Hartree energy:                                            6044.92933443221318
  Exchange-correlation energy:                              -2216.28098628601037
  Dispersion energy:                                           16.03387106802884

  Total energy:                                            -21725.77959447298781

  outer SCF iter =   12 RMS gradient =   0.20E-05 energy =     -21725.7795944730

  ----------------------------------- OT ---------------------------------------
  Minimizer      : DIIS                : direct inversion
                                         in the iterative subspace
                                         using   7 DIIS vectors
                                         safer DIIS on
  Preconditioner : FULL_KINETIC        : inversion of T + eS
  Precond_solver : DEFAULT
  stepsize       :    0.15000000                  energy_gap     :    0.20000000
  eps_taylor     :   0.10000E-15                  max_taylor     :             4
  ----------------------------------- OT ---------------------------------------

  Step     Update method      Time    Convergence         Total energy    Change
  ------------------------------------------------------------------------------
     1 OT DIIS     0.15E+00    3.8     0.00000204    -21725.7796110498 -1.66E-05
     2 OT DIIS     0.15E+00    1.7     0.00000204    -21725.7796158317 -4.78E-06
     3 OT DIIS     0.15E+00    1.7     0.00000203    -21725.7796179411 -2.11E-06
     4 OT DIIS     0.15E+00    1.7     0.00000203    -21725.7796292469 -1.13E-05
     5 OT DIIS     0.15E+00    1.7     0.00000202    -21725.7796569827 -2.77E-05
     6 OT DIIS     0.15E+00    1.7     0.00000202    -21725.7796699715 -1.30E-05
     7 OT DIIS     0.15E+00    1.7     0.00000202    -21725.7797272548 -5.73E-05
     8 OT DIIS     0.15E+00    1.7     0.00000200    -21725.7797983289 -7.11E-05
     9 OT DIIS     0.15E+00    1.7     0.00000200    -21725.7798426620 -4.43E-05
    10 OT DIIS     0.15E+00    1.7     0.00000199    -21725.7798830283 -4.04E-05
    11 OT DIIS     0.15E+00    1.7     0.00000198    -21725.7800684510 -1.85E-04
    12 OT DIIS     0.15E+00    1.7     0.00000196    -21725.7801899392 -1.21E-04
    13 OT DIIS     0.15E+00    1.7     0.00000195    -21725.7802872858 -9.73E-05
    14 OT DIIS     0.15E+00    1.8     0.00000194    -21725.7803622111 -7.49E-05
    15 OT DIIS     0.15E+00    1.7     0.00000193    -21725.7805352043 -1.73E-04
    16 OT DIIS     0.15E+00    1.7     0.00000190    -21725.7806656324 -1.30E-04
    17 OT DIIS     0.15E+00    1.7     0.00000189    -21725.7807756530 -1.10E-04
    18 OT DIIS     0.15E+00    1.7     0.00000188    -21725.7808573970 -8.17E-05
    19 OT DIIS     0.15E+00    1.7     0.00000185    -21725.7809951534 -1.38E-04
    20 OT DIIS     0.15E+00    1.8     0.00000184    -21725.7810641954 -6.90E-05
    21 OT DIIS     0.15E+00    1.7     0.00000183    -21725.7811208322 -5.66E-05
    22 OT DIIS     0.15E+00    1.7     0.00000182    -21725.7811487304 -2.79E-05
    23 OT DIIS     0.15E+00    1.7     0.00000181    -21725.7811997970 -5.11E-05
    24 OT DIIS     0.15E+00    1.7     0.00000180    -21725.7812275965 -2.78E-05
    25 OT DIIS     0.15E+00    1.7     0.00000179    -21725.7812481281 -2.05E-05
    26 OT DIIS     0.15E+00    1.7     0.00000179    -21725.7812606131 -1.25E-05
    27 OT DIIS     0.15E+00    1.7     0.00000178    -21725.7812813533 -2.07E-05
    28 OT DIIS     0.15E+00    1.8     0.00000177    -21725.7812889227 -7.57E-06
    29 OT DIIS     0.15E+00    1.7     0.00000177    -21725.7812963911 -7.47E-06
    30 OT DIIS     0.15E+00    1.7     0.00000177    -21725.7813009396 -4.55E-06

  Leaving inner SCF loop after reaching    30 steps.


  Electronic density on regular grids:      -3254.0000000030       -0.0000000030
  Core density on regular grids:             3253.9999999998       -0.0000000002
  Total charge density on r-space grids:       -0.0000000032
  Total charge density g-space grids:          -0.0000000032

  Overlap energy of the core charge distribution:               0.00000177473249
  Self energy of the core charge distribution:             -32938.66937211190088
  Core Hamiltonian energy:                                   7368.15950751572382
  Hartree energy:                                            6044.96361826260090
  Exchange-correlation energy:                              -2216.26863098194463
  Dispersion energy:                                           16.03357460116811

  Total energy:                                            -21725.78130093961954

  outer SCF iter =   13 RMS gradient =   0.18E-05 energy =     -21725.7813009396

  ----------------------------------- OT ---------------------------------------
  Minimizer      : DIIS                : direct inversion
                                         in the iterative subspace
                                         using   7 DIIS vectors
                                         safer DIIS on
  Preconditioner : FULL_KINETIC        : inversion of T + eS
  Precond_solver : DEFAULT
  stepsize       :    0.15000000                  energy_gap     :    0.20000000
  eps_taylor     :   0.10000E-15                  max_taylor     :             4
  ----------------------------------- OT ---------------------------------------

  Step     Update method      Time    Convergence         Total energy    Change
  ------------------------------------------------------------------------------
     1 OT DIIS     0.15E+00    3.8     0.00000176    -21725.7813187915 -1.79E-05
     2 OT DIIS     0.15E+00    1.7     0.00000177    -21725.7813223660 -3.57E-06
     3 OT DIIS     0.15E+00    1.7     0.00000176    -21725.7813238268 -1.46E-06
     4 OT DIIS     0.15E+00    1.7     0.00000176    -21725.7813305801 -6.75E-06
     5 OT DIIS     0.15E+00    1.7     0.00000175    -21725.7813530132 -2.24E-05
     6 OT DIIS     0.15E+00    1.7     0.00000175    -21725.7813622378 -9.22E-06
     7 OT DIIS     0.15E+00    1.7     0.00000175    -21725.7814073789 -4.51E-05
     8 OT DIIS     0.15E+00    1.7     0.00000173    -21725.7815006765 -9.33E-05
     9 OT DIIS     0.15E+00    1.7     0.00000173    -21725.7815596749 -5.90E-05
    10 OT DIIS     0.15E+00    1.7     0.00000172    -21725.7816210996 -6.14E-05
    11 OT DIIS     0.15E+00    1.7     0.00000170    -21725.7818985853 -2.77E-04
    12 OT DIIS     0.15E+00    1.7     0.00000166    -21725.7821481790 -2.50E-04
    13 OT DIIS     0.15E+00    1.7     0.00000164    -21725.7822801585 -1.32E-04
    14 OT DIIS     0.15E+00    1.7     0.00000163    -21725.7823771848 -9.70E-05
    15 OT DIIS     0.15E+00    1.7     0.00000161    -21725.7825669043 -1.90E-04
    16 OT DIIS     0.15E+00    1.7     0.00000157    -21725.7827337835 -1.67E-04
    17 OT DIIS     0.15E+00    1.7     0.00000156    -21725.7828684717 -1.35E-04
    18 OT DIIS     0.15E+00    1.7     0.00000154    -21725.7829655153 -9.70E-05
    19 OT DIIS     0.15E+00    1.7     0.00000151    -21725.7830735512 -1.08E-04
    20 OT DIIS     0.15E+00    1.7     0.00000149    -21725.7831345303 -6.10E-05
    21 OT DIIS     0.15E+00    1.7     0.00000148    -21725.7831973167 -6.28E-05
    22 OT DIIS     0.15E+00    1.7     0.00000147    -21725.7832248372 -2.75E-05
    23 OT DIIS     0.15E+00    1.7     0.00000146    -21725.7832747267 -4.99E-05
    24 OT DIIS     0.15E+00    1.7     0.00000144    -21725.7832952600 -2.05E-05
    25 OT DIIS     0.15E+00    1.7     0.00000143    -21725.7833155635 -2.03E-05
    26 OT DIIS     0.15E+00    1.8     0.00000142    -21725.7833289671 -1.34E-05
    27 OT DIIS     0.15E+00    1.7     0.00000141    -21725.7833463207 -1.74E-05
    28 OT DIIS     0.15E+00    1.7     0.00000141    -21725.7833481332 -1.81E-06
    29 OT SD       0.15E+00    1.7     0.00000140    -21725.7833571601 -9.03E-06
    30 OT DIIS     0.15E+00    1.7     0.00000140    -21725.7833594190 -2.26E-06

  Leaving inner SCF loop after reaching    30 steps.


  Electronic density on regular grids:      -3254.0000000777       -0.0000000777
  Core density on regular grids:             3253.9999999998       -0.0000000002
  Total charge density on r-space grids:       -0.0000000779
  Total charge density g-space grids:          -0.0000000779

  Overlap energy of the core charge distribution:               0.00000177473249
  Self energy of the core charge distribution:             -32938.66937211190088
  Core Hamiltonian energy:                                   7368.08892576837206
  Hartree energy:                                            6045.01414688542172
  Exchange-correlation energy:                              -2216.25019659833924
  Dispersion energy:                                           16.03313486271888

  Total energy:                                            -21725.78335941899786

  outer SCF iter =   14 RMS gradient =   0.14E-05 energy =     -21725.7833594190

  ----------------------------------- OT ---------------------------------------
  Minimizer      : DIIS                : direct inversion
                                         in the iterative subspace
                                         using   7 DIIS vectors
                                         safer DIIS on
  Preconditioner : FULL_KINETIC        : inversion of T + eS
  Precond_solver : DEFAULT
  stepsize       :    0.15000000                  energy_gap     :    0.20000000
  eps_taylor     :   0.10000E-15                  max_taylor     :             4
  ----------------------------------- OT ---------------------------------------

  Step     Update method      Time    Convergence         Total energy    Change
  ------------------------------------------------------------------------------
     1 OT DIIS     0.15E+00    3.8     0.00000139    -21725.7833736519 -1.42E-05
     2 OT DIIS     0.15E+00    1.7     0.00000140    -21725.7833758660 -2.21E-06
     3 OT DIIS     0.15E+00    1.7     0.00000138    -21725.7833767338 -8.68E-07
     4 OT DIIS     0.15E+00    1.7     0.00000138    -21725.7833813600 -4.63E-06
     5 OT DIIS     0.15E+00    1.7     0.00000137    -21725.7833944290 -1.31E-05
     6 OT DIIS     0.15E+00    1.7     0.00000137    -21725.7833998152 -5.39E-06
     7 OT DIIS     0.15E+00    1.7     0.00000137    -21725.7834203594 -2.05E-05
     8 OT DIIS     0.15E+00    1.7     0.00000136    -21725.7834553857 -3.50E-05
     9 OT DIIS     0.15E+00    1.7     0.00000135    -21725.7834730724 -1.77E-05
    10 OT DIIS     0.15E+00    1.7     0.00000135    -21725.7834896135 -1.65E-05
    11 OT DIIS     0.15E+00    1.7     0.00000134    -21725.7835439650 -5.44E-05
    12 OT DIIS     0.15E+00    1.7     0.00000133    -21725.7835989538 -5.50E-05
    13 OT DIIS     0.15E+00    1.7     0.00000132    -21725.7836332722 -3.43E-05
    14 OT DIIS     0.15E+00    1.7     0.00000132    -21725.7836582830 -2.50E-05
    15 OT DIIS     0.15E+00    1.7     0.00000131    -21725.7836963453 -3.81E-05
    16 OT DIIS     0.15E+00    1.7     0.00000130    -21725.7837401789 -4.38E-05
    17 OT DIIS     0.15E+00    1.7     0.00000130    -21725.7837623299 -2.22E-05
    18 OT DIIS     0.15E+00    1.7     0.00000129    -21725.7837822121 -1.99E-05
    19 OT DIIS     0.15E+00    1.7     0.00000129    -21725.7838001319 -1.79E-05
    20 OT DIIS     0.15E+00    1.7     0.00000128    -21725.7838188173 -1.87E-05
    21 OT DIIS     0.15E+00    1.7     0.00000128    -21725.7838299969 -1.12E-05
    22 OT DIIS     0.15E+00    1.7     0.00000128    -21725.7838384780 -8.48E-06
    23 OT DIIS     0.15E+00    1.7     0.00000127    -21725.7838457598 -7.28E-06
    24 OT DIIS     0.15E+00    1.7     0.00000127    -21725.7838598959 -1.41E-05
    25 OT DIIS     0.15E+00    1.7     0.00000127    -21725.7838669404 -7.04E-06
    26 OT DIIS     0.15E+00    1.7     0.00000126    -21725.7838750206 -8.08E-06
    27 OT DIIS     0.15E+00    1.7     0.00000126    -21725.7838848624 -9.84E-06
    28 OT DIIS     0.15E+00    1.7     0.00000126    -21725.7839003538 -1.55E-05
    29 OT DIIS     0.15E+00    1.7     0.00000126    -21725.7839116129 -1.13E-05
    30 OT DIIS     0.15E+00    1.7     0.00000125    -21725.7839192015 -7.59E-06

  Leaving inner SCF loop after reaching    30 steps.


  Electronic density on regular grids:      -3253.9999999966        0.0000000034
  Core density on regular grids:             3253.9999999998       -0.0000000002
  Total charge density on r-space grids:        0.0000000032
  Total charge density g-space grids:           0.0000000032

  Overlap energy of the core charge distribution:               0.00000177473249
  Self energy of the core charge distribution:             -32938.66937211190088
  Core Hamiltonian energy:                                   7368.06473253602053
  Hartree energy:                                            6045.03149532656607
  Exchange-correlation energy:                              -2216.24375731307282
  Dispersion energy:                                           16.03298058615363

  Total energy:                                            -21725.78391920150534

  outer SCF iter =   15 RMS gradient =   0.13E-05 energy =     -21725.7839192015

  ----------------------------------- OT ---------------------------------------
  Minimizer      : DIIS                : direct inversion
                                         in the iterative subspace
                                         using   7 DIIS vectors
                                         safer DIIS on
  Preconditioner : FULL_KINETIC        : inversion of T + eS
  Precond_solver : DEFAULT
  stepsize       :    0.15000000                  energy_gap     :    0.20000000
  eps_taylor     :   0.10000E-15                  max_taylor     :             4
  ----------------------------------- OT ---------------------------------------

  Step     Update method      Time    Convergence         Total energy    Change
  ------------------------------------------------------------------------------
     1 OT DIIS     0.15E+00    3.8     0.00000125    -21725.7839298525 -1.07E-05
     2 OT DIIS     0.15E+00    1.7     0.00000125    -21725.7839316473 -1.79E-06
     3 OT DIIS     0.15E+00    1.7     0.00000125    -21725.7839323181 -6.71E-07
     4 OT DIIS     0.15E+00    1.7     0.00000125    -21725.7839365952 -4.28E-06
     5 OT DIIS     0.15E+00    1.7     0.00000124    -21725.7839536003 -1.70E-05
     6 OT DIIS     0.15E+00    1.7     0.00000124    -21725.7839576639 -4.06E-06
     7 OT DIIS     0.15E+00    1.7     0.00000124    -21725.7839792208 -2.16E-05
     8 OT DIIS     0.15E+00    1.7     0.00000123    -21725.7840111879 -3.20E-05
     9 OT DIIS     0.15E+00    1.7     0.00000123    -21725.7840327489 -2.16E-05
    10 OT DIIS     0.15E+00    1.7     0.00000122    -21725.7840514923 -1.87E-05
    11 OT DIIS     0.15E+00    1.7     0.00000122    -21725.7841140895 -6.26E-05
    12 OT DIIS     0.15E+00    1.7     0.00000120    -21725.7841799217 -6.58E-05
    13 OT DIIS     0.15E+00    1.7     0.00000119    -21725.7842396532 -5.97E-05
    14 OT DIIS     0.15E+00    1.7     0.00000118    -21725.7843046384 -6.50E-05
    15 OT DIIS     0.15E+00    1.7     0.00000117    -21725.7844196201 -1.15E-04
    16 OT DIIS     0.15E+00    1.8     0.00000115    -21725.7845134059 -9.38E-05
    17 OT DIIS     0.15E+00    1.7     0.00000114    -21725.7845657876 -5.24E-05
    18 OT DIIS     0.15E+00    1.7     0.00000113    -21725.7846046829 -3.89E-05
    19 OT DIIS     0.15E+00    1.7     0.00000111    -21725.7846625321 -5.78E-05
    20 OT DIIS     0.15E+00    1.7     0.00000109    -21725.7847094076 -4.69E-05
    21 OT DIIS     0.15E+00    1.7     0.00000108    -21725.7847787155 -6.93E-05
    22 OT DIIS     0.15E+00    1.7     0.00000106    -21725.7848261566 -4.74E-05
    23 OT DIIS     0.15E+00    1.7     0.00000104    -21725.7848794654 -5.33E-05
    24 OT DIIS     0.15E+00    1.7     0.00000103    -21725.7849078447 -2.84E-05
    25 OT DIIS     0.15E+00    1.7     0.00000102    -21725.7849268084 -1.90E-05
    26 OT DIIS     0.15E+00    1.7     0.00000102    -21725.7849382989 -1.15E-05
    27 OT DIIS     0.15E+00    1.7     0.00000101    -21725.7849515193 -1.32E-05
    28 OT DIIS     0.15E+00    1.7     0.00000101    -21725.7849519965 -4.77E-07
    29 OT SD       0.15E+00    1.7     0.00000100    -21725.7849574098 -5.41E-06
    30 OT DIIS     0.15E+00    1.7     0.00000101    -21725.7849585726 -1.16E-06

  Leaving inner SCF loop after reaching    30 steps.


  Electronic density on regular grids:      -3254.0000000133       -0.0000000133
  Core density on regular grids:             3253.9999999998       -0.0000000002
  Total charge density on r-space grids:       -0.0000000135
  Total charge density g-space grids:          -0.0000000135

  Overlap energy of the core charge distribution:               0.00000177473249
  Self energy of the core charge distribution:             -32938.66937211190088
  Core Hamiltonian energy:                                   7368.01542295700983
  Hartree energy:                                            6045.06692905931232
  Exchange-correlation energy:                              -2216.23060919359568
  Dispersion energy:                                           16.03266894183856

  Total energy:                                            -21725.78495857260350

  outer SCF iter =   16 RMS gradient =   0.10E-05 energy =     -21725.7849585726

  ----------------------------------- OT ---------------------------------------
  Minimizer      : DIIS                : direct inversion
                                         in the iterative subspace
                                         using   7 DIIS vectors
                                         safer DIIS on
  Preconditioner : FULL_KINETIC        : inversion of T + eS
  Precond_solver : DEFAULT
  stepsize       :    0.15000000                  energy_gap     :    0.20000000
  eps_taylor     :   0.10000E-15                  max_taylor     :             4
  ----------------------------------- OT ---------------------------------------

  Step     Update method      Time    Convergence         Total energy    Change
  ------------------------------------------------------------------------------
     1 OT DIIS     0.15E+00    3.8     0.00000100    -21725.7849712621 -1.27E-05

  *** SCF run converged in     1 steps ***


  Electronic density on regular grids:      -3254.0000000148       -0.0000000148
  Core density on regular grids:             3253.9999999998       -0.0000000002
  Total charge density on r-space grids:       -0.0000000150
[...]
 flops    96 x   128 x    96       26826747936768       0.0%    100.0%      0.0%
 flops   128 x    96 x    96       26826747936768       0.0%    100.0%      0.0%
 flops    96 x   128 x   291       28757048426496       0.0%    100.0%      0.0%
 flops   128 x    96 x   291       28757048426496       0.0%    100.0%      0.0%
 flops   286 x    96 x   291       33672541833216       0.0%    100.0%      0.0%
 flops   291 x    96 x   286       33672541833216       0.0%    100.0%      0.0%
 flops   291 x    96 x   128       35738799243264       0.0%    100.0%      0.0%
 flops   291 x   128 x    96       35738799243264       0.0%    100.0%      0.0%
 flops   291 x    96 x   312       36733681999872       0.0%    100.0%      0.0%
 flops   312 x    96 x   291       36733681999872       0.0%    100.0%      0.0%
 flops    26 x    26 x   128       37409221324800       0.0%    100.0%      0.0%
 flops   291 x    96 x   291       51391833951744       0.0%    100.0%      0.0%
 flops   299 x    96 x    96       59672127430656       0.0%    100.0%      0.0%
 flops    96 x    96 x   286       91854558461952       0.0%    100.0%      0.0%
 flops    96 x    96 x   312      100204972867584       0.0%    100.0%      0.0%
 flops   286 x    96 x    96      114155374215168       0.0%    100.0%      0.0%
 flops   312 x    96 x    96      124533135507456       0.0%    100.0%      0.0%
 flops    96 x    96 x    96      130780396191744       0.0%    100.0%      0.0%
 flops    96 x    96 x   291      140190611079168       0.0%    100.0%      0.0%
 flops   291 x    96 x    96      174226646310912       0.0%    100.0%      0.0%
 flops    26 x    26 x    96      182369953958400       0.0%    100.0%      0.0%
 flops    26 x    32 x    26      968611737600000       0.0%    100.0%      0.0%
 flops inhomo. stacks             150103393430016     100.0%      0.0%      0.0%
 flops total                         3.490726E+15       4.3%     95.7%      0.0%
 flops max/rank                     18.324633E+12       4.6%     95.4%      0.0%
 matmuls inhomo. stacks                  16655360     100.0%      0.0%      0.0%
 matmuls total                        27201822144       0.1%     99.9%      0.0%
 number of processed stacks             593302144       2.8%     97.2%      0.0%
 average stack size                                     1.0      47.1       0.0
 marketing flops                     3.735688E+15
 -------------------------------------------------------------------------------
 # multiplications                         119156
 max memory usage/rank             397.660160E+06
 # max total images/rank                        1
 # max 3D layers                                1
 # MPI messages exchanged               915118080
 MPI messages size (bytes):
  total size                       195.219752E+12
  min size                           0.000000E+00
  max size                         778.752000E+03
  average size                     213.327391E+03
 MPI breakdown and total messages size (bytes):
             size <=      128             2797440                        0
       128 < size <=     8192                   0                        0
      8192 < size <=    32768               59520               1545407040
     32768 < size <=   131072           381373440           31548271651680
    131072 < size <=  4194304           530887680          164187971942400
   4194304 < size <= 16777216                   0                        0
  16777216 < size                               0                        0
 -------------------------------------------------------------------------------
 -                                                                             -
 -                      DBCSR MESSAGE PASSING PERFORMANCE                      -
 -                                                                             -
 -------------------------------------------------------------------------------
 ROUTINE             CALLS      AVE VOLUME [Bytes]
 MP_Bcast              178                     12.
 MP_Allreduce       647860                      9.
 MP_Alltoall        360648                  86839.
 MP_ISend          7624992                 112096.
 MP_IRecv          7624992                 111231.
 -------------------------------------------------------------------------------

 -------------------------------------------------------------------------------
 -                                                                             -
 -                                DBM STATISTICS                               -
 -                                                                             -
 -------------------------------------------------------------------------------
    M  x    N  x    K                                          COUNT     PERCENT
 -------------------------------------------------------------------------------

 -------------------------------------------------------------------------------
 -                                                                             -
 -                                GRID STATISTICS                              -
 -                                                                             -
 -------------------------------------------------------------------------------
 LP    KERNEL             BACKEND                              COUNT     PERCENT
 6     collocate general  REF                             1709176516      43.98%
 6     integrate general  REF                             1692750419      43.55%
 4     collocate general  REF                              166117296       4.27%
 4     integrate general  REF                              164511980       4.23%
 5     integrate general  REF                               49696544       1.28%
 5     collocate general  REF                               48544040       1.25%
 7     integrate general  REF                               16646121       0.43%
 2     collocate general  REF                               10550193       0.27%
 2     integrate general  REF                               10445642       0.27%
 3     integrate general  REF                                6037244       0.16%
 3     collocate general  REF                                5993556       0.15%
 0     collocate general  REF                                3128320       0.08%
 1     integrate general  REF                                3080192       0.08%
 -------------------------------------------------------------------------------

 MEMORY| Estimated peak process memory [MiB]                                 380

 -------------------------------------------------------------------------------
 -                                                                             -
 -                         MESSAGE PASSING PERFORMANCE                         -
 -                                                                             -
 -------------------------------------------------------------------------------

 ROUTINE             CALLS      AVE VOLUME [Bytes]
 MP_Group                5
 MP_Bcast            37645                  18811.
 MP_Allreduce       113692                    330.
 MP_Sync            105631
 MP_Alltoall        894767              291430846.
 MP_ISendRecv     10052865                   6789.
 MP_Wait          10830893
 MP_comm_split         249
 MP_ISend          2485580                 106369.
 MP_IRecv          2485846                 106358.
 MP_Recv              4321                 947694.
 -------------------------------------------------------------------------------


 -------------------------------------------------------------------------------
 -                                                                             -
 -                           R E F E R E N C E S                               -
 -                                                                             -
 -------------------------------------------------------------------------------
 
 CP2K version 2022.1 (Development Version), the CP2K developers group (2022).
 CP2K is freely available from https://www.cp2k.org/ .

 Kuehne,Thomas D.; Iannuzzi,Marcella; Del Ben,Mauro;
 Rybkin,Vladimir V.; Seewald,Patrick; Stein,Frederick; Laino,Teodoro;
 Khaliullin,Rustam Z.; Schuett,Ole; Schiffmann,Florian; Golze,Dorothea;
 Wilhelm,Jan; Chulkov,Sergey; Bani-Hashemian,Mohammad Hossein;
 Weber,Valery; Borstnik,Urban; Taillefumier,Mathieu;
 Jakobovits,Alice Shoshana; Lazzaro,Alfio; Pabst,Hans; Mueller,Tiziano;
 Schade,Robert; Guidon,Manuel; Andermatt,Samuel; Holmberg,Nico;
 Schenter,Gregory K.; Hehn,Anna; Bussy,Augustin; Belleflamme,Fabian;
 Tabacchi,Gloria; Gloess,Andreas; Lass,Michael; Bethune,Iain;
 Mundy,Christopher J.; Plessl,Christian; Watkins,Matt;
 VandeVondele,Joost; Krack,Matthias; Hutter,Juerg. 
 The Journal of Chemical Physics, 152 (19), (2020). 
 CP2K: An electronic structure and molecular dynamics software package -
 Quickstep: Efficient and accurate electronic structure calculations.
 https://doi.org/10.1063/5.0007045

 Lehtola, S; Steigemann, C; Oliveira, MJT; Marques, MAL. 
 SoftwareX, 7, 1-5 (2018). 
 Recent developments in libxc - A comprehensive library of functionals
 for density functional theory.
 https://doi.org/10.1016/j.softx.2017.11.002

 Schuett, Ole; Messmer, Peter; Hutter, Juerg; VandeVondele, Joost. 
 Electronic Structure Calculations on Graphics Processing Units, John
 Wiley & Sons, Ltd, 173-190 (2016). 
 GPU-Accelerated Sparse Matrix-Matrix Multiplication for
 Linear Scaling Density Functional Theory.
 https://doi.org/10.1002/9781118670712.ch8

 Heinecke, A; Henry, G; Hutchinson, M; Pabst, H. 
 Proceedings of Intl. Supercomputing Conference, 981-991 (2016). 
 LIBXSMM: Accelerating Small Matrix Multiplications
 by Runtime Code Generation.
 https://doi.org/10.1109/SC.2016.83

 Borstnik, U; VandeVondele, J; Weber, V; Hutter, J. 
 PARALLEL COMPUTING, 40 (5-6), 47-58 (2014). 
 Sparse matrix multiplication: The distributed block-compressed sparse
 row library.
 https://doi.org/10.1016/j.parco.2014.03.012

 Hutter, J; Iannuzzi, M; Schiffmann, F; VandeVondele, J. 
 WIREs Comput Mol Sci., 4 (1), 15-25 (2014). 
 CP2K: atomistic simulations of condensed matter systems.
 https://doi.org/10.1002/wcms.1159

 Marek, A; Blum, V; Johanni, R; Havu, V; Lang, B; Auckenthaler, T;
 Heinecke, A; Bungartz, H; Lederer, H. 
 Journal of Physics: Condensed Matter, 26 (21), (2014). 
 The ELPA library: scalable parallel eigenvalue solutions for
 electronic structure
 theory and computational science.
 https://doi.org/10.1088/0953-8984/26/21/213201

 Marques, MAL; Oliveira, MJT; Burnus, T. 
 COMPUTER PHYSICS COMMUNICATIONS, 183 (10), 2272-2281 (2012). 
 LIBXC: A library of exchange and correlation functionals for density
 functional theory.
 https://doi.org/10.1016/j.cpc.2012.05.007

 Wellendorff, J; Lundgaard, K; Mogelhoj, A; Petzold, V; Landis, D;
 Norskov, J; Bligaard, T; Jacobsen, K. 
 PHYSICAL REVIEW B, 85 (23), 235149 (2012). 
 Density functionals for surface science: Exchange-correlation model development with Bayesian error estimation.
 https://doi.org/10.1103/PhysRevB.85.235149

 Roman-Perez, G; Soler, JM. 
 Phys. Rev. Lett., 103 (9), 096102 (2009). 
 Efficient Implementation of a van der Waals Density Functional:
 Application to Double-Wall Carbon Nanotubes.
 https://doi.org/10.1103/PhysRevLett.103.096102

 VandeVondele, J; Hutter, J. 
 JOURNAL OF CHEMICAL PHYSICS, 127 (11), 114105 (2007). 
 Gaussian basis sets for accurate calculations on molecular systems in
 gas and condensed phases.
 https://doi.org/10.1063/1.2770708

 Kuhne, TD; Krack, M; Mohamed, FR; Parrinello, M. 
 PHYSICAL REVIEW LETTERS, 98 (6), 066401 (2007). 
 Efficient and accurate Car-Parrinello-like approach to
 Born-Oppenheimer molecular dynamics.
 https://doi.org/10.1103/PhysRevLett.98.066401

 Krack, M. 
 THEORETICAL CHEMISTRY ACCOUNTS, 114 (1-3), 145-152 (2005). 
 Pseudopotentials for H to Kr optimized for gradient-corrected
 exchange-correlation functionals.
 https://doi.org/10.1007/s00214-005-0655-y

 VandeVondele, J; Krack, M; Mohamed, F; Parrinello, M; Chassaing, T;
 Hutter, J. COMPUTER PHYSICS COMMUNICATIONS, 167 (2), 103-128 (2005). 
 QUICKSTEP: Fast and accurate density functional calculations using a
 mixed Gaussian and plane waves approach.
 https://doi.org/10.1016/j.cpc.2004.12.014

 Frigo, M; Johnson, SG. 
 PROCEEDINGS OF THE IEEE, 93 (2), 216-231 (2005). 
 The design and implementation of FFTW3.
 https://doi.org/10.1109/JPROC.2004.840301

 Dion, M; Rydberg, H; Schroder, E; Langreth, DC; Lundqvist, BI. 
 Phys. Rev. Lett., 92 (24), 246401 (2004). 
 Van der Waals density functional for general geometries.
 https://doi.org/10.1103/PhysRevLett.92.246401

 Kolafa, J. 
 JOURNAL OF COMPUTATIONAL CHEMISTRY, 25 (3), 335-342 (2004). 
 Time-reversible always stable predictor-corrector method for
 molecular dynamics of polarizable molecules.
 https://doi.org/10.1002/jcc.10385

 VandeVondele, J; Hutter, J. 
 JOURNAL OF CHEMICAL PHYSICS, 118 (10), 4365-4369 (2003). 
 An efficient orbital transformation method for electronic structure
 calculations.
 https://doi.org/10.1063/1.1543154

 Hartwigsen, C; Goedecker, S; Hutter, J. 
 PHYSICAL REVIEW B, 58 (7), 3641-3662 (1998). 
 Relativistic separable dual-space Gaussian pseudopotentials from H to Rn.
 https://doi.org/10.1103/PhysRevB.58.3641

 Lippert, G; Hutter, J; Parrinello, M. 
 MOLECULAR PHYSICS, 92 (3), 477-487 (1997). 
 A hybrid Gaussian and plane wave density functional scheme.
 https://doi.org/10.1080/002689797170220

 Perdew, JP; Burke, K; Ernzerhof, M. 
 PHYSICAL REVIEW LETTERS, 77 (18), 3865-3868 (1996). 
 Generalized gradient approximation made simple.
 https://doi.org/10.1103/PhysRevLett.77.3865

 Goedecker, S; Teter, M; Hutter, J. 
 PHYSICAL REVIEW B, 54 (3), 1703-1710 (1996). 
 Separable dual-space Gaussian pseudopotentials.
 https://doi.org/10.1103/PhysRevB.54.1703


 -------------------------------------------------------------------------------
 -                                                                             -
 -                                T I M I N G                                  -
 -                                                                             -
 -------------------------------------------------------------------------------
 SUBROUTINE                       CALLS  ASD         SELF TIME        TOTAL TIME
                                MAXIMUM       AVERAGE  MAXIMUM  AVERAGE  MAXIMUM
 CP2K                                 1  1.0     0.03     0.04 11820.22 11820.29
 cp_geo_opt                           1  2.0     0.00     0.00 11819.19 11819.26
 geoopt_bfgs                          1  3.0     0.02     0.03 11819.19 11819.26
 cp_eval_at                          65  4.0     0.01     0.01 11771.56 11771.63
 qs_energies                         65  6.0     0.05     0.09 11493.62 11493.79
 qs_forces                           64  5.0     0.01     0.02 11421.35 11421.41
 scf_env_do_scf                      65  7.0     0.01     0.04 11395.51 11395.57
 scf_env_do_scf_inner_loop         6506  8.0     0.16     0.47 11041.06 11045.39
 rebuild_ks_matrix                 6570  9.9     0.04     0.07  7383.08  7413.20
 qs_ks_build_kohn_sham_matrix      6570 10.9     1.05     1.21  7383.04  7413.17
 qs_ks_update_qs_env               6754  9.0     0.13     0.16  7297.24  7327.05
 qs_vxc_create                     6570 11.9     0.30     0.33  4110.87  4111.82
 calculate_dispersion_nonloc       6570 12.9   190.02   215.44  3534.63  3536.35
 pw_transfer                     512531 14.0    40.56    51.70  3386.20  3491.63
 fft_wrap_pw1pw2                 466541 15.0     6.17     7.49  3316.04  3422.00
 fft_wrap_pw1pw2_150             413977 16.1   190.60   206.54  3237.19  3332.21
 sum_up_and_integrate              6570 11.9     1.84     2.12  3033.72  3040.43
 integrate_v_rspace                6570 12.9     0.22     0.34  3031.86  3038.92
 fft3d_pb                        413977 17.1   758.12   836.64  2754.10  2903.47
 qs_rho_update_rho_low             6571  9.0     0.05     0.06  2486.04  2495.89
 calculate_rho_elec                6571 10.0     1.21     1.27  2485.99  2495.85
 rs_pw_transfer                   65834 13.5     0.95     1.19  1844.44  2463.50
 mp_alltoall_z22v                880518 19.0  1678.98  2108.91  1678.98  2108.91
 grid_integrate_task_list          6570 13.9  1321.01  2036.29  1321.01  2036.29
 grid_collocate_task_list          6571 11.0  1299.07  1848.73  1299.07  1848.73
 density_rs2pw                     6571 11.0     0.30     0.38  1125.65  1745.55
 mp_waitany                      501422 15.4   938.11  1657.95   938.11  1657.95
 dbcsr_multiply_generic          119156 14.0     4.58     5.09  1564.92  1642.27
 qs_scf_new_mos                    6506  9.0     0.04     0.06  1553.94  1567.27
 qs_scf_loop_do_ot                 6506 10.0     0.04     0.06  1553.89  1567.21
 mp_alltoall_d11v                 67235 15.7   828.10  1538.84   828.10  1538.84
 rs_gather_matrices                6570 13.9     3.41     5.16   769.09  1484.08
 ot_scf_mini                       6506 11.0     0.18     0.22  1444.60  1460.27
 multiply_cannon                 119156 15.0     8.37    10.76  1135.97  1343.85
 rs_pw_transfer_RS2PW_150          6636 13.0   132.66   257.01   648.84  1300.95
 multiply_cannon_loop            119156 16.0     8.06     9.18  1071.72  1264.67
 ot_mini                           6506 12.0     0.09     0.13   971.33   991.59
 potential_pw2rs                   6570 13.9     0.32     0.39   940.91   949.02
 cube_transpose_3                223381 18.0    88.07   109.82   738.01   908.63
 multiply_cannon_multrec        1906496 17.0   632.65   834.33   633.06   834.76
 cube_transpose_4                190596 18.1   102.39   117.28   671.68   812.52
 qs_ot_get_derivative              6506 13.0     0.04     0.07   768.76   783.69
 mp_waitall_1                   ******* 17.1   597.44   777.69   597.44   777.69
 cube_transpose_1                249661 18.1    72.10    83.58   314.93   649.03
 xc_vxc_pw_create                  6570 12.9     2.65     4.40   575.94   580.03
 qs_ot_get_derivative_taylor       6334 14.0     0.13     0.19   512.86   527.19
 rs_pw_transfer_PW2RS_150          6634 15.9   310.90   320.24   483.42   492.10
 vdW_energy                        6570 13.9   443.83   469.73   443.83   469.73
 rs_pw_transfer_RS2PW_50           6571 13.0    97.46   133.88   281.09   407.93
 cube_transpose_2                216880 17.9    59.82    63.40   276.75   402.02
 multiply_cannon_metrocomm1     1906496 17.0     3.59     3.94   266.31   394.61
 xc_pw_derive                     39420 14.9     0.29     0.33   357.52   388.29
 init_scf_loop                      248  8.0     0.01     0.01   349.89   349.94
 xc_rho_set_and_dset_create        6570 13.9    10.33    11.98   335.93   349.18
 rs_pw_transfer_PW2RS_50           6570 15.9    72.94   113.89   281.86   315.52
 multiply_cannon_metrocomm3     1906496 17.0     3.21     3.46    84.68   277.12
 make_m2s                        238312 15.0     2.85     3.39   243.55   263.18
 xc_pw_divergence                  6570 13.9     0.14     0.17   232.42   256.02
 mp_sum_l                        568243 15.0   155.44   247.84   155.44   247.84
 -------------------------------------------------------------------------------

 The number of warnings for this run is : 1
 
 -------------------------------------------------------------------------------
  **** **** ******  **  PROGRAM ENDED AT                 2023-04-19 17:50:31.691
 ***** ** ***  *** **   PROGRAM RAN ON                                 nid001731
 **    ****   ******    PROGRAM RAN BY                                  dpassero
 ***** **    ** ** **   PROGRAM PROCESS ID                                 14783
  **** **  *******  **  PROGRAM STOPPED IN /scratch/e1000/dpassero/MMM_2023/jbac
                                           hmann/ethane/full
