
     Program PWSCF v.7.1 starts on 22Mar2023 at 15:58:11 

     This program is part of the open-source Quantum ESPRESSO suite
     for quantum simulation of materials; please cite
         "P. Giannozzi et al., J. Phys.:Condens. Matter 21 395502 (2009);
         "P. Giannozzi et al., J. Phys.:Condens. Matter 29 465901 (2017);
         "P. Giannozzi et al., J. Chem. Phys. 152 154105 (2020);
          URL http://www.quantum-espresso.org", 
     in publications or presentations arising from this work. More details at
     http://www.quantum-espresso.org/quote

     Parallel version (MPI), running on     2 processors

     MPI processes distributed on     1 nodes
     182471 MiB available memory on the printing compute node when the environment starts
 
     Waiting for input...
     Reading input from standard input

     Current dimensions of program PWSCF are:
     Max number of different atomic species (ntypx) = 10
     Max number of k-points (npk) =  40000
     Max angular momentum in pseudopotentials (lmaxx) =  4

     Atomic positions and unit cell read from directory:
     ./out/sic.save/
 
     file C.pbe-n-kjpaw_psl.1.0.0.UPF: wavefunction(s)  2S 2P renormalized
 
     R & G space division:  proc/nbgrp/npool/nimage =       2
     Subspace diagonalization in iterative solution of the eigenvalue problem:
     a serial algorithm will be used

 
     Parallelization info
     --------------------
     sticks:   dense  smooth     PW     G-vecs:    dense   smooth      PW
     Min         428     216     69                 8312     2980     518
     Max         431     217     70                 8313     2981     519
     Sum         859     433    139                16625     5961    1037
 
     Using Slab Decomposition
 


     bravais-lattice index     =            2
     lattice parameter (alat)  =       8.3431  a.u.
     unit-cell volume          =     145.1873 (a.u.)^3
     number of atoms/cell      =            2
     number of atomic types    =            2
     number of electrons       =         8.00
     number of Kohn-Sham states=           10
     kinetic-energy cutoff     =      45.0000  Ry
     charge density cutoff     =     360.0000  Ry
     Exchange-correlation= SLA  PW   PBX  PBC
                           (   1   4   3   4   0   0   0)

     celldm(1)=   8.343141  celldm(2)=   0.000000  celldm(3)=   0.000000
     celldm(4)=   0.000000  celldm(5)=   0.000000  celldm(6)=   0.000000

     crystal axes: (cart. coord. in units of alat)
               a(1) = (  -0.500000   0.000000   0.500000 )  
               a(2) = (   0.000000   0.500000   0.500000 )  
               a(3) = (  -0.500000   0.500000   0.000000 )  

     reciprocal axes: (cart. coord. in units 2 pi/alat)
               b(1) = ( -1.000000 -1.000000  1.000000 )  
               b(2) = (  1.000000  1.000000  1.000000 )  
               b(3) = ( -1.000000  1.000000 -1.000000 )  


     PseudoPot. # 1 for Si read from file:
     ./pseudo/Si.pbe-n-rrkjus_psl.1.0.0.UPF
     MD5 check sum: 0b0bb1205258b0d07b9f9672cf965d36
     Pseudo is Ultrasoft + core correction, Zval =  4.0
     Generated using "atomic" code by A. Dal Corso  v.5.1
     Using radial grid of 1141 points,  6 beta functions with: 
                l(1) =   0
                l(2) =   0
                l(3) =   1
                l(4) =   1
                l(5) =   2
                l(6) =   2
     Q(r) pseudized with 0 coefficients 


     PseudoPot. # 2 for C  read from file:
     ./pseudo/C.pbe-n-kjpaw_psl.1.0.0.UPF
     MD5 check sum: 5d2aebdfa2cae82b50a7e79e9516da0f
     Pseudo is Projector augmented-wave + core cor, Zval =  4.0
     Generated using "atomic" code by A. Dal Corso  v.5.1
     Shape of augmentation charge: PSQ
     Using radial grid of 1073 points,  4 beta functions with: 
                l(1) =   0
                l(2) =   0
                l(3) =   1
                l(4) =   1
     Q(r) pseudized with 0 coefficients 


     atomic species   valence    mass     pseudopotential
        Si             4.00    28.08550     Si( 1.00)
        C              4.00    12.00000     C ( 1.00)

     24 Sym. Ops. (no inversion) found


                                    s                        frac. trans.

      isym =  1     identity                                     

 cryst.   s( 1) = (     1          0          0      )
                  (     0          1          0      )
                  (     0          0          1      )

 cart.    s( 1) = (  1.0000000 -0.0000000  0.0000000 )
                  ( -0.0000000  1.0000000 -0.0000000 )
                  ( -0.0000000 -0.0000000  1.0000000 )


      isym =  2     180 deg rotation - cart. axis [0,0,1]        

 cryst.   s( 2) = (     0          1         -1      )
                  (     1          0         -1      )
                  (     0          0         -1      )

 cart.    s( 2) = ( -1.0000000  0.0000000  0.0000000 )
                  (  0.0000000 -1.0000000 -0.0000000 )
                  (  0.0000000  0.0000000  1.0000000 )


      isym =  3     180 deg rotation - cart. axis [0,1,0]        

 cryst.   s( 3) = (    -1          0          0      )
                  (    -1          0          1      )
                  (    -1          1          0      )

 cart.    s( 3) = ( -1.0000000 -0.0000000 -0.0000000 )
                  (  0.0000000  1.0000000  0.0000000 )
                  (  0.0000000 -0.0000000 -1.0000000 )


      isym =  4     180 deg rotation - cart. axis [1,0,0]        

 cryst.   s( 4) = (     0         -1          1      )
                  (     0         -1          0      )
                  (     1         -1          0      )

 cart.    s( 4) = (  1.0000000  0.0000000 -0.0000000 )
                  ( -0.0000000 -1.0000000  0.0000000 )
                  ( -0.0000000  0.0000000 -1.0000000 )


      isym =  5     120 deg rotation - cart. axis [-1,-1,-1]     

 cryst.   s( 5) = (    -1          0          1      )
                  (    -1          1          0      )
                  (    -1          0          0      )

 cart.    s( 5) = (  0.0000000  1.0000000 -0.0000000 )
                  ( -0.0000000 -0.0000000  1.0000000 )
                  (  1.0000000 -0.0000000 -0.0000000 )


      isym =  6     120 deg rotation - cart. axis [-1,1,1]       

 cryst.   s( 6) = (     0          1          0      )
                  (     0          0          1      )
                  (     1          0          0      )

 cart.    s( 6) = ( -0.0000000 -1.0000000 -0.0000000 )
                  (  0.0000000  0.0000000  1.0000000 )
                  ( -1.0000000  0.0000000 -0.0000000 )


      isym =  7     120 deg rotation - cart. axis [1,1,-1]       

 cryst.   s( 7) = (     1          0         -1      )
                  (     0          0         -1      )
                  (     0          1         -1      )

 cart.    s( 7) = ( -0.0000000  1.0000000  0.0000000 )
                  (  0.0000000 -0.0000000 -1.0000000 )
                  ( -1.0000000 -0.0000000  0.0000000 )


      isym =  8     120 deg rotation - cart. axis [1,-1,1]       

 cryst.   s( 8) = (     0         -1          0      )
                  (     1         -1          0      )
                  (     0         -1          1      )

 cart.    s( 8) = (  0.0000000 -1.0000000  0.0000000 )
                  ( -0.0000000  0.0000000 -1.0000000 )
                  (  1.0000000  0.0000000  0.0000000 )


      isym =  9     120 deg rotation - cart. axis [1,1,1]        

 cryst.   s( 9) = (     0          0         -1      )
                  (     0          1         -1      )
                  (     1          0         -1      )

 cart.    s( 9) = ( -0.0000000  0.0000000  1.0000000 )
                  (  1.0000000 -0.0000000 -0.0000000 )
                  ( -0.0000000  1.0000000 -0.0000000 )


      isym = 10     120 deg rotation - cart. axis [-1,1,-1]      

 cryst.   s(10) = (    -1          1          0      )
                  (    -1          0          0      )
                  (    -1          0          1      )

 cart.    s(10) = (  0.0000000 -0.0000000  1.0000000 )
                  ( -1.0000000  0.0000000 -0.0000000 )
                  (  0.0000000 -1.0000000 -0.0000000 )


      isym = 11     120 deg rotation - cart. axis [1,-1,-1]      

 cryst.   s(11) = (     0          0          1      )
                  (     1          0          0      )
                  (     0          1          0      )

 cart.    s(11) = (  0.0000000  0.0000000 -1.0000000 )
                  ( -1.0000000 -0.0000000  0.0000000 )
                  (  0.0000000  1.0000000  0.0000000 )


      isym = 12     120 deg rotation - cart. axis [-1,-1,1]      

 cryst.   s(12) = (     1         -1          0      )
                  (     0         -1          1      )
                  (     0         -1          0      )

 cart.    s(12) = ( -0.0000000 -0.0000000 -1.0000000 )
                  (  1.0000000  0.0000000  0.0000000 )
                  ( -0.0000000 -1.0000000  0.0000000 )


      isym = 13     inv. 180 deg rotation - cart. axis [1,1,0]   

 cryst.   s(13) = (     0          1          0      )
                  (     1          0          0      )
                  (     0          0          1      )

 cart.    s(13) = (  0.0000000 -1.0000000  0.0000000 )
                  ( -1.0000000  0.0000000 -0.0000000 )
                  (  0.0000000  0.0000000  1.0000000 )


      isym = 14     inv. 180 deg rotation - cart. axis [1,-1,0]  

 cryst.   s(14) = (     1          0         -1      )
                  (     0          1         -1      )
                  (     0          0         -1      )

 cart.    s(14) = ( -0.0000000  1.0000000  0.0000000 )
                  (  1.0000000 -0.0000000 -0.0000000 )
                  ( -0.0000000 -0.0000000  1.0000000 )


      isym = 15     inv.  90 deg rotation - cart. axis [0,0,-1]  

 cryst.   s(15) = (     0         -1          0      )
                  (     0         -1          1      )
                  (     1         -1          0      )

 cart.    s(15) = ( -0.0000000 -1.0000000 -0.0000000 )
                  (  1.0000000  0.0000000  0.0000000 )
                  ( -0.0000000  0.0000000 -1.0000000 )


      isym = 16     inv.  90 deg rotation - cart. axis [0,0,1]   

 cryst.   s(16) = (    -1          0          1      )
                  (    -1          0          0      )
                  (    -1          1          0      )

 cart.    s(16) = (  0.0000000  1.0000000 -0.0000000 )
                  ( -1.0000000 -0.0000000  0.0000000 )
                  (  0.0000000 -0.0000000 -1.0000000 )


      isym = 17     inv. 180 deg rotation - cart. axis [1,0,1]   

 cryst.   s(17) = (     1          0          0      )
                  (     0          0          1      )
                  (     0          1          0      )

 cart.    s(17) = ( -0.0000000 -0.0000000 -1.0000000 )
                  (  0.0000000  1.0000000  0.0000000 )
                  ( -1.0000000 -0.0000000  0.0000000 )


      isym = 18     inv. 180 deg rotation - cart. axis [-1,0,1]  

 cryst.   s(18) = (    -1          0          0      )
                  (    -1          1          0      )
                  (    -1          0          1      )

 cart.    s(18) = (  0.0000000 -0.0000000  1.0000000 )
                  ( -0.0000000  1.0000000 -0.0000000 )
                  (  1.0000000 -0.0000000 -0.0000000 )


      isym = 19     inv.  90 deg rotation - cart. axis [0,1,0]   

 cryst.   s(19) = (     0         -1          1      )
                  (     1         -1          0      )
                  (     0         -1          0      )

 cart.    s(19) = (  0.0000000  0.0000000 -1.0000000 )
                  ( -0.0000000 -1.0000000  0.0000000 )
                  (  1.0000000  0.0000000  0.0000000 )


      isym = 20     inv.  90 deg rotation - cart. axis [0,-1,0]  

 cryst.   s(20) = (     0          1         -1      )
                  (     0          0         -1      )
                  (     1          0         -1      )

 cart.    s(20) = ( -0.0000000  0.0000000  1.0000000 )
                  (  0.0000000 -1.0000000 -0.0000000 )
                  ( -1.0000000  0.0000000 -0.0000000 )


      isym = 21     inv. 180 deg rotation - cart. axis [0,1,1]   

 cryst.   s(21) = (     1         -1          0      )
                  (     0         -1          0      )
                  (     0         -1          1      )

 cart.    s(21) = (  1.0000000 -0.0000000  0.0000000 )
                  ( -0.0000000  0.0000000 -1.0000000 )
                  ( -0.0000000 -1.0000000  0.0000000 )


      isym = 22     inv. 180 deg rotation - cart. axis [0,1,-1]  

 cryst.   s(22) = (     0          0          1      )
                  (     0          1          0      )
                  (     1          0          0      )

 cart.    s(22) = (  1.0000000  0.0000000 -0.0000000 )
                  ( -0.0000000 -0.0000000  1.0000000 )
                  ( -0.0000000  1.0000000 -0.0000000 )


      isym = 23     inv.  90 deg rotation - cart. axis [-1,0,0]  

 cryst.   s(23) = (     0          0         -1      )
                  (     1          0         -1      )
                  (     0          1         -1      )

 cart.    s(23) = ( -1.0000000  0.0000000  0.0000000 )
                  (  0.0000000 -0.0000000 -1.0000000 )
                  (  0.0000000  1.0000000  0.0000000 )


      isym = 24     inv.  90 deg rotation - cart. axis [1,0,0]   

 cryst.   s(24) = (    -1          1          0      )
                  (    -1          0          1      )
                  (    -1          0          0      )

 cart.    s(24) = ( -1.0000000 -0.0000000 -0.0000000 )
                  (  0.0000000  0.0000000  1.0000000 )
                  (  0.0000000 -1.0000000 -0.0000000 )


     point group T_d (-43m) 
     there are  5 classes
     the character table:

       E     8C3   3C2   6S4   6s_d 
A_1    1.00  1.00  1.00  1.00  1.00
A_2    1.00  1.00  1.00 -1.00 -1.00
E      2.00 -1.00  2.00  0.00  0.00
T_1    3.00  0.00 -1.00  1.00 -1.00
T_2    3.00  0.00 -1.00 -1.00  1.00

     the symmetry operations in each class and the name of the first element:

     E        1
          identity                                               
     8C3      5    7    8    6   12    9   10   11
          120 deg rotation - cart. axis [-1,-1,-1]               
     3C2      2    3    4
          180 deg rotation - cart. axis [0,0,1]                  
     6S4     15   16   20   19   23   24
          inv.  90 deg rotation - cart. axis [0,0,-1]            
     6s_d    13   14   17   18   21   22
          inv. 180 deg rotation - cart. axis [1,1,0]             

   Cartesian axes

     site n.     atom                  positions (alat units)
         1           Si  tau(   1) = (   0.0000000   0.0000000   0.0000000  )
         2           C   tau(   2) = (   0.2500000   0.2500000   0.2500000  )

   Crystallographic axes

     site n.     atom                  positions (cryst. coord.)
         1           Si  tau(   1) = (  0.0000000  0.0000000  0.0000000  )
         2           C   tau(   2) = ( -0.2500000  0.7500000 -0.2500000  )

     number of k points=   221  Gaussian smearing, width (Ry)=  0.0010
                       cart. coord. in units 2pi/alat
        k(    1) = (  -0.5000000   0.5000000   0.5000000), wk =   0.0090498
        k(    2) = (  -0.4958333   0.4958333   0.4958333), wk =   0.0090498
        k(    3) = (  -0.4916667   0.4916667   0.4916667), wk =   0.0090498
        k(    4) = (  -0.4875000   0.4875000   0.4875000), wk =   0.0090498
        k(    5) = (  -0.4833333   0.4833333   0.4833333), wk =   0.0090498
        k(    6) = (  -0.4791667   0.4791667   0.4791667), wk =   0.0090498
        k(    7) = (  -0.4750000   0.4750000   0.4750000), wk =   0.0090498
        k(    8) = (  -0.4708333   0.4708333   0.4708333), wk =   0.0090498
        k(    9) = (  -0.4666667   0.4666667   0.4666667), wk =   0.0090498
        k(   10) = (  -0.4625000   0.4625000   0.4625000), wk =   0.0090498
        k(   11) = (  -0.4583333   0.4583333   0.4583333), wk =   0.0090498
        k(   12) = (  -0.4541667   0.4541667   0.4541667), wk =   0.0090498
        k(   13) = (  -0.4500000   0.4500000   0.4500000), wk =   0.0090498
        k(   14) = (  -0.4458333   0.4458333   0.4458333), wk =   0.0090498
        k(   15) = (  -0.4416667   0.4416667   0.4416667), wk =   0.0090498
        k(   16) = (  -0.4375000   0.4375000   0.4375000), wk =   0.0090498
        k(   17) = (  -0.4333333   0.4333333   0.4333333), wk =   0.0090498
        k(   18) = (  -0.4291667   0.4291667   0.4291667), wk =   0.0090498
        k(   19) = (  -0.4250000   0.4250000   0.4250000), wk =   0.0090498
        k(   20) = (  -0.4208333   0.4208333   0.4208333), wk =   0.0090498
        k(   21) = (  -0.4166667   0.4166667   0.4166667), wk =   0.0090498
        k(   22) = (  -0.4125000   0.4125000   0.4125000), wk =   0.0090498
        k(   23) = (  -0.4083333   0.4083333   0.4083333), wk =   0.0090498
        k(   24) = (  -0.4041667   0.4041667   0.4041667), wk =   0.0090498
        k(   25) = (  -0.4000000   0.4000000   0.4000000), wk =   0.0090498
        k(   26) = (  -0.3958333   0.3958333   0.3958333), wk =   0.0090498
        k(   27) = (  -0.3916667   0.3916667   0.3916667), wk =   0.0090498
        k(   28) = (  -0.3875000   0.3875000   0.3875000), wk =   0.0090498
        k(   29) = (  -0.3833333   0.3833333   0.3833333), wk =   0.0090498
        k(   30) = (  -0.3791667   0.3791667   0.3791667), wk =   0.0090498
        k(   31) = (  -0.3750000   0.3750000   0.3750000), wk =   0.0090498
        k(   32) = (  -0.3708333   0.3708333   0.3708333), wk =   0.0090498
        k(   33) = (  -0.3666667   0.3666667   0.3666667), wk =   0.0090498
        k(   34) = (  -0.3625000   0.3625000   0.3625000), wk =   0.0090498
        k(   35) = (  -0.3583333   0.3583333   0.3583333), wk =   0.0090498
        k(   36) = (  -0.3541667   0.3541667   0.3541667), wk =   0.0090498
        k(   37) = (  -0.3500000   0.3500000   0.3500000), wk =   0.0090498
        k(   38) = (  -0.3458333   0.3458333   0.3458333), wk =   0.0090498
        k(   39) = (  -0.3416667   0.3416667   0.3416667), wk =   0.0090498
        k(   40) = (  -0.3375000   0.3375000   0.3375000), wk =   0.0090498
        k(   41) = (  -0.3333333   0.3333333   0.3333333), wk =   0.0090498
        k(   42) = (  -0.3291667   0.3291667   0.3291667), wk =   0.0090498
        k(   43) = (  -0.3250000   0.3250000   0.3250000), wk =   0.0090498
        k(   44) = (  -0.3208333   0.3208333   0.3208333), wk =   0.0090498
        k(   45) = (  -0.3166667   0.3166667   0.3166667), wk =   0.0090498
        k(   46) = (  -0.3125000   0.3125000   0.3125000), wk =   0.0090498
        k(   47) = (  -0.3083333   0.3083333   0.3083333), wk =   0.0090498
        k(   48) = (  -0.3041667   0.3041667   0.3041667), wk =   0.0090498
        k(   49) = (  -0.3000000   0.3000000   0.3000000), wk =   0.0090498
        k(   50) = (  -0.2958333   0.2958333   0.2958333), wk =   0.0090498
        k(   51) = (  -0.2916667   0.2916667   0.2916667), wk =   0.0090498
        k(   52) = (  -0.2875000   0.2875000   0.2875000), wk =   0.0090498
        k(   53) = (  -0.2833333   0.2833333   0.2833333), wk =   0.0090498
        k(   54) = (  -0.2791667   0.2791667   0.2791667), wk =   0.0090498
        k(   55) = (  -0.2750000   0.2750000   0.2750000), wk =   0.0090498
        k(   56) = (  -0.2708333   0.2708333   0.2708333), wk =   0.0090498
        k(   57) = (  -0.2666667   0.2666667   0.2666667), wk =   0.0090498
        k(   58) = (  -0.2625000   0.2625000   0.2625000), wk =   0.0090498
        k(   59) = (  -0.2583333   0.2583333   0.2583333), wk =   0.0090498
        k(   60) = (  -0.2541667   0.2541667   0.2541667), wk =   0.0090498
        k(   61) = (  -0.2500000   0.2500000   0.2500000), wk =   0.0090498
        k(   62) = (  -0.2458333   0.2458333   0.2458333), wk =   0.0090498
        k(   63) = (  -0.2416667   0.2416667   0.2416667), wk =   0.0090498
        k(   64) = (  -0.2375000   0.2375000   0.2375000), wk =   0.0090498
        k(   65) = (  -0.2333333   0.2333333   0.2333333), wk =   0.0090498
        k(   66) = (  -0.2291667   0.2291667   0.2291667), wk =   0.0090498
        k(   67) = (  -0.2250000   0.2250000   0.2250000), wk =   0.0090498
        k(   68) = (  -0.2208333   0.2208333   0.2208333), wk =   0.0090498
        k(   69) = (  -0.2166667   0.2166667   0.2166667), wk =   0.0090498
        k(   70) = (  -0.2125000   0.2125000   0.2125000), wk =   0.0090498
        k(   71) = (  -0.2083333   0.2083333   0.2083333), wk =   0.0090498
        k(   72) = (  -0.2041667   0.2041667   0.2041667), wk =   0.0090498
        k(   73) = (  -0.2000000   0.2000000   0.2000000), wk =   0.0090498
        k(   74) = (  -0.1958333   0.1958333   0.1958333), wk =   0.0090498
        k(   75) = (  -0.1916667   0.1916667   0.1916667), wk =   0.0090498
        k(   76) = (  -0.1875000   0.1875000   0.1875000), wk =   0.0090498
        k(   77) = (  -0.1833333   0.1833333   0.1833333), wk =   0.0090498
        k(   78) = (  -0.1791667   0.1791667   0.1791667), wk =   0.0090498
        k(   79) = (  -0.1750000   0.1750000   0.1750000), wk =   0.0090498
        k(   80) = (  -0.1708333   0.1708333   0.1708333), wk =   0.0090498
        k(   81) = (  -0.1666667   0.1666667   0.1666667), wk =   0.0090498
        k(   82) = (  -0.1625000   0.1625000   0.1625000), wk =   0.0090498
        k(   83) = (  -0.1583333   0.1583333   0.1583333), wk =   0.0090498
        k(   84) = (  -0.1541667   0.1541667   0.1541667), wk =   0.0090498
        k(   85) = (  -0.1500000   0.1500000   0.1500000), wk =   0.0090498
        k(   86) = (  -0.1458333   0.1458333   0.1458333), wk =   0.0090498
        k(   87) = (  -0.1416667   0.1416667   0.1416667), wk =   0.0090498
        k(   88) = (  -0.1375000   0.1375000   0.1375000), wk =   0.0090498
        k(   89) = (  -0.1333333   0.1333333   0.1333333), wk =   0.0090498
        k(   90) = (  -0.1291667   0.1291667   0.1291667), wk =   0.0090498
        k(   91) = (  -0.1250000   0.1250000   0.1250000), wk =   0.0090498
        k(   92) = (  -0.1208333   0.1208333   0.1208333), wk =   0.0090498
        k(   93) = (  -0.1166667   0.1166667   0.1166667), wk =   0.0090498
        k(   94) = (  -0.1125000   0.1125000   0.1125000), wk =   0.0090498
        k(   95) = (  -0.1083333   0.1083333   0.1083333), wk =   0.0090498
        k(   96) = (  -0.1041667   0.1041667   0.1041667), wk =   0.0090498
        k(   97) = (  -0.1000000   0.1000000   0.1000000), wk =   0.0090498
        k(   98) = (  -0.0958333   0.0958333   0.0958333), wk =   0.0090498
        k(   99) = (  -0.0916667   0.0916667   0.0916667), wk =   0.0090498
        k(  100) = (  -0.0875000   0.0875000   0.0875000), wk =   0.0090498
        k(  101) = (  -0.0833333   0.0833333   0.0833333), wk =   0.0090498
        k(  102) = (  -0.0791667   0.0791667   0.0791667), wk =   0.0090498
        k(  103) = (  -0.0750000   0.0750000   0.0750000), wk =   0.0090498
        k(  104) = (  -0.0708333   0.0708333   0.0708333), wk =   0.0090498
        k(  105) = (  -0.0666667   0.0666667   0.0666667), wk =   0.0090498
        k(  106) = (  -0.0625000   0.0625000   0.0625000), wk =   0.0090498
        k(  107) = (  -0.0583333   0.0583333   0.0583333), wk =   0.0090498
        k(  108) = (  -0.0541667   0.0541667   0.0541667), wk =   0.0090498
        k(  109) = (  -0.0500000   0.0500000   0.0500000), wk =   0.0090498
        k(  110) = (  -0.0458333   0.0458333   0.0458333), wk =   0.0090498
        k(  111) = (  -0.0416667   0.0416667   0.0416667), wk =   0.0090498
        k(  112) = (  -0.0375000   0.0375000   0.0375000), wk =   0.0090498
        k(  113) = (  -0.0333333   0.0333333   0.0333333), wk =   0.0090498
        k(  114) = (  -0.0291667   0.0291667   0.0291667), wk =   0.0090498
        k(  115) = (  -0.0250000   0.0250000   0.0250000), wk =   0.0090498
        k(  116) = (  -0.0208333   0.0208333   0.0208333), wk =   0.0090498
        k(  117) = (  -0.0166667   0.0166667   0.0166667), wk =   0.0090498
        k(  118) = (  -0.0125000   0.0125000   0.0125000), wk =   0.0090498
        k(  119) = (  -0.0083333   0.0083333   0.0083333), wk =   0.0090498
        k(  120) = (  -0.0041667   0.0041667   0.0041667), wk =   0.0090498
        k(  121) = (   0.0000000   0.0000000   0.0000000), wk =   0.0090498
        k(  122) = (  -0.0166667   0.0000000  -0.0000000), wk =   0.0090498
        k(  123) = (  -0.0333333   0.0000000  -0.0000000), wk =   0.0090498
        k(  124) = (  -0.0500000  -0.0000000   0.0000000), wk =   0.0090498
        k(  125) = (  -0.0666667   0.0000000  -0.0000000), wk =   0.0090498
        k(  126) = (  -0.0833333  -0.0000000   0.0000000), wk =   0.0090498
        k(  127) = (  -0.1000000  -0.0000000   0.0000000), wk =   0.0090498
        k(  128) = (  -0.1166667  -0.0000000   0.0000000), wk =   0.0090498
        k(  129) = (  -0.1333333   0.0000000  -0.0000000), wk =   0.0090498
        k(  130) = (  -0.1500000  -0.0000000   0.0000000), wk =   0.0090498
        k(  131) = (  -0.1666667  -0.0000000   0.0000000), wk =   0.0090498
        k(  132) = (  -0.1833333   0.0000000  -0.0000000), wk =   0.0090498
        k(  133) = (  -0.2000000  -0.0000000   0.0000000), wk =   0.0090498
        k(  134) = (  -0.2166667   0.0000000  -0.0000000), wk =   0.0090498
        k(  135) = (  -0.2333333  -0.0000000   0.0000000), wk =   0.0090498
        k(  136) = (  -0.2500000   0.0000000   0.0000000), wk =   0.0090498
        k(  137) = (  -0.2666667   0.0000000  -0.0000000), wk =   0.0090498
        k(  138) = (  -0.2833333   0.0000000  -0.0000000), wk =   0.0090498
        k(  139) = (  -0.3000000  -0.0000000   0.0000000), wk =   0.0090498
        k(  140) = (  -0.3166667  -0.0000000   0.0000000), wk =   0.0090498
        k(  141) = (  -0.3333333  -0.0000000   0.0000000), wk =   0.0090498
        k(  142) = (  -0.3500000   0.0000000  -0.0000000), wk =   0.0090498
        k(  143) = (  -0.3666667   0.0000000  -0.0000000), wk =   0.0090498
        k(  144) = (  -0.3833333  -0.0000000   0.0000000), wk =   0.0090498
        k(  145) = (  -0.4000000  -0.0000000   0.0000000), wk =   0.0090498
        k(  146) = (  -0.4166667   0.0000000  -0.0000000), wk =   0.0090498
        k(  147) = (  -0.4333333   0.0000000  -0.0000000), wk =   0.0090498
        k(  148) = (  -0.4500000   0.0000000  -0.0000000), wk =   0.0090498
        k(  149) = (  -0.4666667  -0.0000000   0.0000000), wk =   0.0090498
        k(  150) = (  -0.4833333  -0.0000000   0.0000000), wk =   0.0090498
        k(  151) = (  -0.5000000   0.0000000   0.0000000), wk =   0.0090498
        k(  152) = (  -0.5166667   0.0000000  -0.0000000), wk =   0.0090498
        k(  153) = (  -0.5333333   0.0000000  -0.0000000), wk =   0.0090498
        k(  154) = (  -0.5500000   0.0000000  -0.0000000), wk =   0.0090498
        k(  155) = (  -0.5666667   0.0000000  -0.0000000), wk =   0.0090498
        k(  156) = (  -0.5833333  -0.0000000   0.0000000), wk =   0.0090498
        k(  157) = (  -0.6000000  -0.0000000   0.0000000), wk =   0.0090498
        k(  158) = (  -0.6166667  -0.0000000   0.0000000), wk =   0.0090498
        k(  159) = (  -0.6333333  -0.0000000   0.0000000), wk =   0.0090498
        k(  160) = (  -0.6500000  -0.0000000   0.0000000), wk =   0.0090498
        k(  161) = (  -0.6666667  -0.0000000   0.0000000), wk =   0.0090498
        k(  162) = (  -0.6833333   0.0000000  -0.0000000), wk =   0.0090498
        k(  163) = (  -0.7000000   0.0000000  -0.0000000), wk =   0.0090498
        k(  164) = (  -0.7166667   0.0000000  -0.0000000), wk =   0.0090498
        k(  165) = (  -0.7333333   0.0000000  -0.0000000), wk =   0.0090498
        k(  166) = (  -0.7500000   0.0000000  -0.0000000), wk =   0.0090498
        k(  167) = (  -0.7666667  -0.0000000   0.0000000), wk =   0.0090498
        k(  168) = (  -0.7833333  -0.0000000   0.0000000), wk =   0.0090498
        k(  169) = (  -0.8000000  -0.0000000   0.0000000), wk =   0.0090498
        k(  170) = (  -0.8166667  -0.0000000   0.0000000), wk =   0.0090498
        k(  171) = (  -0.8333333   0.0000000  -0.0000000), wk =   0.0090498
        k(  172) = (  -0.8500000   0.0000000  -0.0000000), wk =   0.0090498
        k(  173) = (  -0.8666667   0.0000000  -0.0000000), wk =   0.0090498
        k(  174) = (  -0.8833333   0.0000000  -0.0000000), wk =   0.0090498
        k(  175) = (  -0.9000000   0.0000000  -0.0000000), wk =   0.0090498
        k(  176) = (  -0.9166667   0.0000000  -0.0000000), wk =   0.0090498
        k(  177) = (  -0.9333333  -0.0000000   0.0000000), wk =   0.0090498
        k(  178) = (  -0.9500000  -0.0000000   0.0000000), wk =   0.0090498
        k(  179) = (  -0.9666667  -0.0000000   0.0000000), wk =   0.0090498
        k(  180) = (  -0.9833333  -0.0000000   0.0000000), wk =   0.0090498
        k(  181) = (  -1.0000000   0.0000000   0.0000000), wk =   0.0090498
        k(  182) = (  -1.0000000   0.0062500   0.0062500), wk =   0.0090498
        k(  183) = (  -1.0000000   0.0125000   0.0125000), wk =   0.0090498
        k(  184) = (  -1.0000000   0.0187500   0.0187500), wk =   0.0090498
        k(  185) = (  -1.0000000   0.0250000   0.0250000), wk =   0.0090498
        k(  186) = (  -1.0000000   0.0312500   0.0312500), wk =   0.0090498
        k(  187) = (  -1.0000000   0.0375000   0.0375000), wk =   0.0090498
        k(  188) = (  -1.0000000   0.0437500   0.0437500), wk =   0.0090498
        k(  189) = (  -1.0000000   0.0500000   0.0500000), wk =   0.0090498
        k(  190) = (  -1.0000000   0.0562500   0.0562500), wk =   0.0090498
        k(  191) = (  -1.0000000   0.0625000   0.0625000), wk =   0.0090498
        k(  192) = (  -1.0000000   0.0687500   0.0687500), wk =   0.0090498
        k(  193) = (  -1.0000000   0.0750000   0.0750000), wk =   0.0090498
        k(  194) = (  -1.0000000   0.0812500   0.0812500), wk =   0.0090498
        k(  195) = (  -1.0000000   0.0875000   0.0875000), wk =   0.0090498
        k(  196) = (  -1.0000000   0.0937500   0.0937500), wk =   0.0090498
        k(  197) = (  -1.0000000   0.1000000   0.1000000), wk =   0.0090498
        k(  198) = (  -1.0000000   0.1062500   0.1062500), wk =   0.0090498
        k(  199) = (  -1.0000000   0.1125000   0.1125000), wk =   0.0090498
        k(  200) = (  -1.0000000   0.1187500   0.1187500), wk =   0.0090498
        k(  201) = (  -1.0000000   0.1250000   0.1250000), wk =   0.0090498
        k(  202) = (  -1.0000000   0.1312500   0.1312500), wk =   0.0090498
        k(  203) = (  -1.0000000   0.1375000   0.1375000), wk =   0.0090498
        k(  204) = (  -1.0000000   0.1437500   0.1437500), wk =   0.0090498
        k(  205) = (  -1.0000000   0.1500000   0.1500000), wk =   0.0090498
        k(  206) = (  -1.0000000   0.1562500   0.1562500), wk =   0.0090498
        k(  207) = (  -1.0000000   0.1625000   0.1625000), wk =   0.0090498
        k(  208) = (  -1.0000000   0.1687500   0.1687500), wk =   0.0090498
        k(  209) = (  -1.0000000   0.1750000   0.1750000), wk =   0.0090498
        k(  210) = (  -1.0000000   0.1812500   0.1812500), wk =   0.0090498
        k(  211) = (  -1.0000000   0.1875000   0.1875000), wk =   0.0090498
        k(  212) = (  -1.0000000   0.1937500   0.1937500), wk =   0.0090498
        k(  213) = (  -1.0000000   0.2000000   0.2000000), wk =   0.0090498
        k(  214) = (  -1.0000000   0.2062500   0.2062500), wk =   0.0090498
        k(  215) = (  -1.0000000   0.2125000   0.2125000), wk =   0.0090498
        k(  216) = (  -1.0000000   0.2187500   0.2187500), wk =   0.0090498
        k(  217) = (  -1.0000000   0.2250000   0.2250000), wk =   0.0090498
        k(  218) = (  -1.0000000   0.2312500   0.2312500), wk =   0.0090498
        k(  219) = (  -1.0000000   0.2375000   0.2375000), wk =   0.0090498
        k(  220) = (  -1.0000000   0.2437500   0.2437500), wk =   0.0090498
        k(  221) = (  -1.0000000   0.2500000   0.2500000), wk =   0.0090498

                       cryst. coord.
        k(    1) = (   0.5000000   0.5000000   0.5000000), wk =   0.0090498
        k(    2) = (   0.4958333   0.4958333   0.4958333), wk =   0.0090498
        k(    3) = (   0.4916667   0.4916667   0.4916667), wk =   0.0090498
        k(    4) = (   0.4875000   0.4875000   0.4875000), wk =   0.0090498
        k(    5) = (   0.4833333   0.4833333   0.4833333), wk =   0.0090498
        k(    6) = (   0.4791667   0.4791667   0.4791667), wk =   0.0090498
        k(    7) = (   0.4750000   0.4750000   0.4750000), wk =   0.0090498
        k(    8) = (   0.4708333   0.4708333   0.4708333), wk =   0.0090498
        k(    9) = (   0.4666667   0.4666667   0.4666667), wk =   0.0090498
        k(   10) = (   0.4625000   0.4625000   0.4625000), wk =   0.0090498
        k(   11) = (   0.4583333   0.4583333   0.4583333), wk =   0.0090498
        k(   12) = (   0.4541667   0.4541667   0.4541667), wk =   0.0090498
        k(   13) = (   0.4500000   0.4500000   0.4500000), wk =   0.0090498
        k(   14) = (   0.4458333   0.4458333   0.4458333), wk =   0.0090498
        k(   15) = (   0.4416667   0.4416667   0.4416667), wk =   0.0090498
        k(   16) = (   0.4375000   0.4375000   0.4375000), wk =   0.0090498
        k(   17) = (   0.4333333   0.4333333   0.4333333), wk =   0.0090498
        k(   18) = (   0.4291667   0.4291667   0.4291667), wk =   0.0090498
        k(   19) = (   0.4250000   0.4250000   0.4250000), wk =   0.0090498
        k(   20) = (   0.4208333   0.4208333   0.4208333), wk =   0.0090498
        k(   21) = (   0.4166667   0.4166667   0.4166667), wk =   0.0090498
        k(   22) = (   0.4125000   0.4125000   0.4125000), wk =   0.0090498
        k(   23) = (   0.4083333   0.4083333   0.4083333), wk =   0.0090498
        k(   24) = (   0.4041667   0.4041667   0.4041667), wk =   0.0090498
        k(   25) = (   0.4000000   0.4000000   0.4000000), wk =   0.0090498
        k(   26) = (   0.3958333   0.3958333   0.3958333), wk =   0.0090498
        k(   27) = (   0.3916667   0.3916667   0.3916667), wk =   0.0090498
        k(   28) = (   0.3875000   0.3875000   0.3875000), wk =   0.0090498
        k(   29) = (   0.3833333   0.3833333   0.3833333), wk =   0.0090498
        k(   30) = (   0.3791667   0.3791667   0.3791667), wk =   0.0090498
        k(   31) = (   0.3750000   0.3750000   0.3750000), wk =   0.0090498
        k(   32) = (   0.3708333   0.3708333   0.3708333), wk =   0.0090498
        k(   33) = (   0.3666667   0.3666667   0.3666667), wk =   0.0090498
        k(   34) = (   0.3625000   0.3625000   0.3625000), wk =   0.0090498
        k(   35) = (   0.3583333   0.3583333   0.3583333), wk =   0.0090498
        k(   36) = (   0.3541667   0.3541667   0.3541667), wk =   0.0090498
        k(   37) = (   0.3500000   0.3500000   0.3500000), wk =   0.0090498
        k(   38) = (   0.3458333   0.3458333   0.3458333), wk =   0.0090498
        k(   39) = (   0.3416667   0.3416667   0.3416667), wk =   0.0090498
        k(   40) = (   0.3375000   0.3375000   0.3375000), wk =   0.0090498
        k(   41) = (   0.3333333   0.3333333   0.3333333), wk =   0.0090498
        k(   42) = (   0.3291667   0.3291667   0.3291667), wk =   0.0090498
        k(   43) = (   0.3250000   0.3250000   0.3250000), wk =   0.0090498
        k(   44) = (   0.3208333   0.3208333   0.3208333), wk =   0.0090498
        k(   45) = (   0.3166667   0.3166667   0.3166667), wk =   0.0090498
        k(   46) = (   0.3125000   0.3125000   0.3125000), wk =   0.0090498
        k(   47) = (   0.3083333   0.3083333   0.3083333), wk =   0.0090498
        k(   48) = (   0.3041667   0.3041667   0.3041667), wk =   0.0090498
        k(   49) = (   0.3000000   0.3000000   0.3000000), wk =   0.0090498
        k(   50) = (   0.2958333   0.2958333   0.2958333), wk =   0.0090498
        k(   51) = (   0.2916667   0.2916667   0.2916667), wk =   0.0090498
        k(   52) = (   0.2875000   0.2875000   0.2875000), wk =   0.0090498
        k(   53) = (   0.2833333   0.2833333   0.2833333), wk =   0.0090498
        k(   54) = (   0.2791667   0.2791667   0.2791667), wk =   0.0090498
        k(   55) = (   0.2750000   0.2750000   0.2750000), wk =   0.0090498
        k(   56) = (   0.2708333   0.2708333   0.2708333), wk =   0.0090498
        k(   57) = (   0.2666667   0.2666667   0.2666667), wk =   0.0090498
        k(   58) = (   0.2625000   0.2625000   0.2625000), wk =   0.0090498
        k(   59) = (   0.2583333   0.2583333   0.2583333), wk =   0.0090498
        k(   60) = (   0.2541667   0.2541667   0.2541667), wk =   0.0090498
        k(   61) = (   0.2500000   0.2500000   0.2500000), wk =   0.0090498
        k(   62) = (   0.2458333   0.2458333   0.2458333), wk =   0.0090498
        k(   63) = (   0.2416667   0.2416667   0.2416667), wk =   0.0090498
        k(   64) = (   0.2375000   0.2375000   0.2375000), wk =   0.0090498
        k(   65) = (   0.2333333   0.2333333   0.2333333), wk =   0.0090498
        k(   66) = (   0.2291667   0.2291667   0.2291667), wk =   0.0090498
        k(   67) = (   0.2250000   0.2250000   0.2250000), wk =   0.0090498
        k(   68) = (   0.2208333   0.2208333   0.2208333), wk =   0.0090498
        k(   69) = (   0.2166667   0.2166667   0.2166667), wk =   0.0090498
        k(   70) = (   0.2125000   0.2125000   0.2125000), wk =   0.0090498
        k(   71) = (   0.2083333   0.2083333   0.2083333), wk =   0.0090498
        k(   72) = (   0.2041667   0.2041667   0.2041667), wk =   0.0090498
        k(   73) = (   0.2000000   0.2000000   0.2000000), wk =   0.0090498
        k(   74) = (   0.1958333   0.1958333   0.1958333), wk =   0.0090498
        k(   75) = (   0.1916667   0.1916667   0.1916667), wk =   0.0090498
        k(   76) = (   0.1875000   0.1875000   0.1875000), wk =   0.0090498
        k(   77) = (   0.1833333   0.1833333   0.1833333), wk =   0.0090498
        k(   78) = (   0.1791667   0.1791667   0.1791667), wk =   0.0090498
        k(   79) = (   0.1750000   0.1750000   0.1750000), wk =   0.0090498
        k(   80) = (   0.1708333   0.1708333   0.1708333), wk =   0.0090498
        k(   81) = (   0.1666667   0.1666667   0.1666667), wk =   0.0090498
        k(   82) = (   0.1625000   0.1625000   0.1625000), wk =   0.0090498
        k(   83) = (   0.1583333   0.1583333   0.1583333), wk =   0.0090498
        k(   84) = (   0.1541667   0.1541667   0.1541667), wk =   0.0090498
        k(   85) = (   0.1500000   0.1500000   0.1500000), wk =   0.0090498
        k(   86) = (   0.1458333   0.1458333   0.1458333), wk =   0.0090498
        k(   87) = (   0.1416667   0.1416667   0.1416667), wk =   0.0090498
        k(   88) = (   0.1375000   0.1375000   0.1375000), wk =   0.0090498
        k(   89) = (   0.1333333   0.1333333   0.1333333), wk =   0.0090498
        k(   90) = (   0.1291667   0.1291667   0.1291667), wk =   0.0090498
        k(   91) = (   0.1250000   0.1250000   0.1250000), wk =   0.0090498
        k(   92) = (   0.1208333   0.1208333   0.1208333), wk =   0.0090498
        k(   93) = (   0.1166667   0.1166667   0.1166667), wk =   0.0090498
        k(   94) = (   0.1125000   0.1125000   0.1125000), wk =   0.0090498
        k(   95) = (   0.1083333   0.1083333   0.1083333), wk =   0.0090498
        k(   96) = (   0.1041667   0.1041667   0.1041667), wk =   0.0090498
        k(   97) = (   0.1000000   0.1000000   0.1000000), wk =   0.0090498
        k(   98) = (   0.0958333   0.0958333   0.0958333), wk =   0.0090498
        k(   99) = (   0.0916667   0.0916667   0.0916667), wk =   0.0090498
        k(  100) = (   0.0875000   0.0875000   0.0875000), wk =   0.0090498
        k(  101) = (   0.0833333   0.0833333   0.0833333), wk =   0.0090498
        k(  102) = (   0.0791667   0.0791667   0.0791667), wk =   0.0090498
        k(  103) = (   0.0750000   0.0750000   0.0750000), wk =   0.0090498
        k(  104) = (   0.0708333   0.0708333   0.0708333), wk =   0.0090498
        k(  105) = (   0.0666667   0.0666667   0.0666667), wk =   0.0090498
        k(  106) = (   0.0625000   0.0625000   0.0625000), wk =   0.0090498
        k(  107) = (   0.0583333   0.0583333   0.0583333), wk =   0.0090498
        k(  108) = (   0.0541667   0.0541667   0.0541667), wk =   0.0090498
        k(  109) = (   0.0500000   0.0500000   0.0500000), wk =   0.0090498
        k(  110) = (   0.0458333   0.0458333   0.0458333), wk =   0.0090498
        k(  111) = (   0.0416667   0.0416667   0.0416667), wk =   0.0090498
        k(  112) = (   0.0375000   0.0375000   0.0375000), wk =   0.0090498
        k(  113) = (   0.0333333   0.0333333   0.0333333), wk =   0.0090498
        k(  114) = (   0.0291667   0.0291667   0.0291667), wk =   0.0090498
        k(  115) = (   0.0250000   0.0250000   0.0250000), wk =   0.0090498
        k(  116) = (   0.0208333   0.0208333   0.0208333), wk =   0.0090498
        k(  117) = (   0.0166667   0.0166667   0.0166667), wk =   0.0090498
        k(  118) = (   0.0125000   0.0125000   0.0125000), wk =   0.0090498
        k(  119) = (   0.0083333   0.0083333   0.0083333), wk =   0.0090498
        k(  120) = (   0.0041667   0.0041667   0.0041667), wk =   0.0090498
        k(  121) = (   0.0000000   0.0000000   0.0000000), wk =   0.0090498
        k(  122) = (   0.0083333  -0.0000000   0.0083333), wk =   0.0090498
        k(  123) = (   0.0166667  -0.0000000   0.0166667), wk =   0.0090498
        k(  124) = (   0.0250000   0.0000000   0.0250000), wk =   0.0090498
        k(  125) = (   0.0333333  -0.0000000   0.0333333), wk =   0.0090498
        k(  126) = (   0.0416667   0.0000000   0.0416667), wk =   0.0090498
        k(  127) = (   0.0500000   0.0000000   0.0500000), wk =   0.0090498
        k(  128) = (   0.0583333   0.0000000   0.0583333), wk =   0.0090498
        k(  129) = (   0.0666667  -0.0000000   0.0666667), wk =   0.0090498
        k(  130) = (   0.0750000  -0.0000000   0.0750000), wk =   0.0090498
        k(  131) = (   0.0833333   0.0000000   0.0833333), wk =   0.0090498
        k(  132) = (   0.0916667  -0.0000000   0.0916667), wk =   0.0090498
        k(  133) = (   0.1000000   0.0000000   0.1000000), wk =   0.0090498
        k(  134) = (   0.1083333   0.0000000   0.1083333), wk =   0.0090498
        k(  135) = (   0.1166667   0.0000000   0.1166667), wk =   0.0090498
        k(  136) = (   0.1250000   0.0000000   0.1250000), wk =   0.0090498
        k(  137) = (   0.1333333  -0.0000000   0.1333333), wk =   0.0090498
        k(  138) = (   0.1416667  -0.0000000   0.1416667), wk =   0.0090498
        k(  139) = (   0.1500000  -0.0000000   0.1500000), wk =   0.0090498
        k(  140) = (   0.1583333  -0.0000000   0.1583333), wk =   0.0090498
        k(  141) = (   0.1666667   0.0000000   0.1666667), wk =   0.0090498
        k(  142) = (   0.1750000  -0.0000000   0.1750000), wk =   0.0090498
        k(  143) = (   0.1833333  -0.0000000   0.1833333), wk =   0.0090498
        k(  144) = (   0.1916667  -0.0000000   0.1916667), wk =   0.0090498
        k(  145) = (   0.2000000   0.0000000   0.2000000), wk =   0.0090498
        k(  146) = (   0.2083333  -0.0000000   0.2083333), wk =   0.0090498
        k(  147) = (   0.2166667   0.0000000   0.2166667), wk =   0.0090498
        k(  148) = (   0.2250000   0.0000000   0.2250000), wk =   0.0090498
        k(  149) = (   0.2333333   0.0000000   0.2333333), wk =   0.0090498
        k(  150) = (   0.2416667   0.0000000   0.2416667), wk =   0.0090498
        k(  151) = (   0.2500000   0.0000000   0.2500000), wk =   0.0090498
        k(  152) = (   0.2583333  -0.0000000   0.2583333), wk =   0.0090498
        k(  153) = (   0.2666667  -0.0000000   0.2666667), wk =   0.0090498
        k(  154) = (   0.2750000   0.0000000   0.2750000), wk =   0.0090498
        k(  155) = (   0.2833333  -0.0000000   0.2833333), wk =   0.0090498
        k(  156) = (   0.2916667   0.0000000   0.2916667), wk =   0.0090498
        k(  157) = (   0.3000000  -0.0000000   0.3000000), wk =   0.0090498
        k(  158) = (   0.3083333   0.0000000   0.3083333), wk =   0.0090498
        k(  159) = (   0.3166667  -0.0000000   0.3166667), wk =   0.0090498
        k(  160) = (   0.3250000   0.0000000   0.3250000), wk =   0.0090498
        k(  161) = (   0.3333333   0.0000000   0.3333333), wk =   0.0090498
        k(  162) = (   0.3416667   0.0000000   0.3416667), wk =   0.0090498
        k(  163) = (   0.3500000  -0.0000000   0.3500000), wk =   0.0090498
        k(  164) = (   0.3583333   0.0000000   0.3583333), wk =   0.0090498
        k(  165) = (   0.3666667  -0.0000000   0.3666667), wk =   0.0090498
        k(  166) = (   0.3750000   0.0000000   0.3750000), wk =   0.0090498
        k(  167) = (   0.3833333  -0.0000000   0.3833333), wk =   0.0090498
        k(  168) = (   0.3916667  -0.0000000   0.3916667), wk =   0.0090498
        k(  169) = (   0.4000000   0.0000000   0.4000000), wk =   0.0090498
        k(  170) = (   0.4083333  -0.0000000   0.4083333), wk =   0.0090498
        k(  171) = (   0.4166667  -0.0000000   0.4166667), wk =   0.0090498
        k(  172) = (   0.4250000  -0.0000000   0.4250000), wk =   0.0090498
        k(  173) = (   0.4333333   0.0000000   0.4333333), wk =   0.0090498
        k(  174) = (   0.4416667  -0.0000000   0.4416667), wk =   0.0090498
        k(  175) = (   0.4500000   0.0000000   0.4500000), wk =   0.0090498
        k(  176) = (   0.4583333  -0.0000000   0.4583333), wk =   0.0090498
        k(  177) = (   0.4666667   0.0000000   0.4666667), wk =   0.0090498
        k(  178) = (   0.4750000  -0.0000000   0.4750000), wk =   0.0090498
        k(  179) = (   0.4833333   0.0000000   0.4833333), wk =   0.0090498
        k(  180) = (   0.4916667  -0.0000000   0.4916667), wk =   0.0090498
        k(  181) = (   0.5000000   0.0000000   0.5000000), wk =   0.0090498
        k(  182) = (   0.5031250   0.0062500   0.5031250), wk =   0.0090498
        k(  183) = (   0.5062500   0.0125000   0.5062500), wk =   0.0090498
        k(  184) = (   0.5093750   0.0187500   0.5093750), wk =   0.0090498
        k(  185) = (   0.5125000   0.0250000   0.5125000), wk =   0.0090498
        k(  186) = (   0.5156250   0.0312500   0.5156250), wk =   0.0090498
        k(  187) = (   0.5187500   0.0375000   0.5187500), wk =   0.0090498
        k(  188) = (   0.5218750   0.0437500   0.5218750), wk =   0.0090498
        k(  189) = (   0.5250000   0.0500000   0.5250000), wk =   0.0090498
        k(  190) = (   0.5281250   0.0562500   0.5281250), wk =   0.0090498
        k(  191) = (   0.5312500   0.0625000   0.5312500), wk =   0.0090498
        k(  192) = (   0.5343750   0.0687500   0.5343750), wk =   0.0090498
        k(  193) = (   0.5375000   0.0750000   0.5375000), wk =   0.0090498
        k(  194) = (   0.5406250   0.0812500   0.5406250), wk =   0.0090498
        k(  195) = (   0.5437500   0.0875000   0.5437500), wk =   0.0090498
        k(  196) = (   0.5468750   0.0937500   0.5468750), wk =   0.0090498
        k(  197) = (   0.5500000   0.1000000   0.5500000), wk =   0.0090498
        k(  198) = (   0.5531250   0.1062500   0.5531250), wk =   0.0090498
        k(  199) = (   0.5562500   0.1125000   0.5562500), wk =   0.0090498
        k(  200) = (   0.5593750   0.1187500   0.5593750), wk =   0.0090498
        k(  201) = (   0.5625000   0.1250000   0.5625000), wk =   0.0090498
        k(  202) = (   0.5656250   0.1312500   0.5656250), wk =   0.0090498
        k(  203) = (   0.5687500   0.1375000   0.5687500), wk =   0.0090498
        k(  204) = (   0.5718750   0.1437500   0.5718750), wk =   0.0090498
        k(  205) = (   0.5750000   0.1500000   0.5750000), wk =   0.0090498
        k(  206) = (   0.5781250   0.1562500   0.5781250), wk =   0.0090498
        k(  207) = (   0.5812500   0.1625000   0.5812500), wk =   0.0090498
        k(  208) = (   0.5843750   0.1687500   0.5843750), wk =   0.0090498
        k(  209) = (   0.5875000   0.1750000   0.5875000), wk =   0.0090498
        k(  210) = (   0.5906250   0.1812500   0.5906250), wk =   0.0090498
        k(  211) = (   0.5937500   0.1875000   0.5937500), wk =   0.0090498
        k(  212) = (   0.5968750   0.1937500   0.5968750), wk =   0.0090498
        k(  213) = (   0.6000000   0.2000000   0.6000000), wk =   0.0090498
        k(  214) = (   0.6031250   0.2062500   0.6031250), wk =   0.0090498
        k(  215) = (   0.6062500   0.2125000   0.6062500), wk =   0.0090498
        k(  216) = (   0.6093750   0.2187500   0.6093750), wk =   0.0090498
        k(  217) = (   0.6125000   0.2250000   0.6125000), wk =   0.0090498
        k(  218) = (   0.6156250   0.2312500   0.6156250), wk =   0.0090498
        k(  219) = (   0.6187500   0.2375000   0.6187500), wk =   0.0090498
        k(  220) = (   0.6218750   0.2437500   0.6218750), wk =   0.0090498
        k(  221) = (   0.6250000   0.2500000   0.6250000), wk =   0.0090498

     Dense  grid:    16625 G-vectors     FFT dimensions: (  36,  36,  36)

     Smooth grid:     5961 G-vectors     FFT dimensions: (  25,  25,  25)

     Dynamical RAM for                 wfc:       0.06 MB

     Dynamical RAM for     wfc (w. buffer):       0.06 MB

     Dynamical RAM for           str. fact:       0.25 MB

     Dynamical RAM for           local pot:       0.00 MB

     Dynamical RAM for          nlocal pot:       0.15 MB

     Dynamical RAM for                qrad:       3.05 MB

     Dynamical RAM for          rho,v,vnew:       0.91 MB

     Dynamical RAM for           G-vectors:       0.50 MB

     Dynamical RAM for          h,s,v(r/c):       0.02 MB

     Dynamical RAM for          <psi|beta>:       0.00 MB

     Dynamical RAM for                 psi:       0.11 MB

     Dynamical RAM for                hpsi:       0.11 MB

     Dynamical RAM for                spsi:       0.11 MB

     Dynamical RAM for      wfcinit/wfcrot:       0.12 MB

     Dynamical RAM for           addusdens:      23.72 MB

     Estimated static dynamical RAM per process >       6.19 MB

     Estimated max dynamical RAM per process >      29.91 MB

     Estimated total dynamical RAM >      59.81 MB

     Check: negative core charge=   -0.000004

     The potential is recalculated from file :
     ./out/sic.save/charge-density

     Starting wfcs are    8 randomized atomic wfcs +    2 random wfcs
     Checking if some PAW data can be deallocated... 
       PAW data deallocated on    1 nodes for type:  2

     Band Structure Calculation
     Davidson diagonalization with overlap

     Computing kpt #:     1  of   221
     total cpu time spent up to now is        0.6 secs

     Computing kpt #:     2  of   221
     total cpu time spent up to now is        0.7 secs

     Computing kpt #:     3  of   221
     total cpu time spent up to now is        0.8 secs

     Computing kpt #:     4  of   221
     total cpu time spent up to now is        0.9 secs

     Computing kpt #:     5  of   221
     total cpu time spent up to now is        0.9 secs

     Computing kpt #:     6  of   221
     total cpu time spent up to now is        1.0 secs

     Computing kpt #:     7  of   221
     total cpu time spent up to now is        1.1 secs

     Computing kpt #:     8  of   221
     total cpu time spent up to now is        1.1 secs

     Computing kpt #:     9  of   221
     total cpu time spent up to now is        1.2 secs

     Computing kpt #:    10  of   221
     total cpu time spent up to now is        1.3 secs

     Computing kpt #:    11  of   221
     total cpu time spent up to now is        1.3 secs

     Computing kpt #:    12  of   221
     total cpu time spent up to now is        1.4 secs

     Computing kpt #:    13  of   221
     total cpu time spent up to now is        1.4 secs

     Computing kpt #:    14  of   221
     total cpu time spent up to now is        1.5 secs

     Computing kpt #:    15  of   221
     total cpu time spent up to now is        1.6 secs

     Computing kpt #:    16  of   221
     total cpu time spent up to now is        1.6 secs

     Computing kpt #:    17  of   221
     total cpu time spent up to now is        1.7 secs

     Computing kpt #:    18  of   221
     total cpu time spent up to now is        1.7 secs

     Computing kpt #:    19  of   221
     total cpu time spent up to now is        1.8 secs

     Computing kpt #:    20  of   221
     total cpu time spent up to now is        1.8 secs

     Computing kpt #:    21  of   221
     total cpu time spent up to now is        1.9 secs

     Computing kpt #:    22  of   221
     total cpu time spent up to now is        1.9 secs

     Computing kpt #:    23  of   221
     total cpu time spent up to now is        1.9 secs

     Computing kpt #:    24  of   221
     total cpu time spent up to now is        2.0 secs

     Computing kpt #:    25  of   221
     total cpu time spent up to now is        2.0 secs

     Computing kpt #:    26  of   221
     total cpu time spent up to now is        2.1 secs

     Computing kpt #:    27  of   221
     total cpu time spent up to now is        2.1 secs

     Computing kpt #:    28  of   221
     total cpu time spent up to now is        2.2 secs

     Computing kpt #:    29  of   221
     total cpu time spent up to now is        2.2 secs

     Computing kpt #:    30  of   221
     total cpu time spent up to now is        2.3 secs

     Computing kpt #:    31  of   221
     total cpu time spent up to now is        2.3 secs

     Computing kpt #:    32  of   221
     total cpu time spent up to now is        2.4 secs

     Computing kpt #:    33  of   221
     total cpu time spent up to now is        2.4 secs

     Computing kpt #:    34  of   221
     total cpu time spent up to now is        2.5 secs

     Computing kpt #:    35  of   221
     total cpu time spent up to now is        2.5 secs

     Computing kpt #:    36  of   221
     total cpu time spent up to now is        2.5 secs

     Computing kpt #:    37  of   221
     total cpu time spent up to now is        2.6 secs

     Computing kpt #:    38  of   221
     total cpu time spent up to now is        2.6 secs

     Computing kpt #:    39  of   221
     total cpu time spent up to now is        2.7 secs

     Computing kpt #:    40  of   221
     total cpu time spent up to now is        2.7 secs

     Computing kpt #:    41  of   221
     total cpu time spent up to now is        2.8 secs

     Computing kpt #:    42  of   221
     total cpu time spent up to now is        2.8 secs

     Computing kpt #:    43  of   221
     total cpu time spent up to now is        2.9 secs

     Computing kpt #:    44  of   221
     total cpu time spent up to now is        2.9 secs

     Computing kpt #:    45  of   221
     total cpu time spent up to now is        3.0 secs

     Computing kpt #:    46  of   221
     total cpu time spent up to now is        3.0 secs

     Computing kpt #:    47  of   221
     total cpu time spent up to now is        3.1 secs

     Computing kpt #:    48  of   221
     total cpu time spent up to now is        3.1 secs

     Computing kpt #:    49  of   221
     total cpu time spent up to now is        3.2 secs

     Computing kpt #:    50  of   221
     total cpu time spent up to now is        3.2 secs

     Computing kpt #:    51  of   221
     total cpu time spent up to now is        3.3 secs

     Computing kpt #:    52  of   221
     total cpu time spent up to now is        3.3 secs

     Computing kpt #:    53  of   221
     total cpu time spent up to now is        3.3 secs

     Computing kpt #:    54  of   221
     total cpu time spent up to now is        3.4 secs

     Computing kpt #:    55  of   221
     total cpu time spent up to now is        3.4 secs

     Computing kpt #:    56  of   221
     total cpu time spent up to now is        3.5 secs

     Computing kpt #:    57  of   221
     total cpu time spent up to now is        3.5 secs

     Computing kpt #:    58  of   221
     total cpu time spent up to now is        3.6 secs

     Computing kpt #:    59  of   221
     total cpu time spent up to now is        3.6 secs

     Computing kpt #:    60  of   221
     total cpu time spent up to now is        3.7 secs

     Computing kpt #:    61  of   221
     total cpu time spent up to now is        3.7 secs

     Computing kpt #:    62  of   221
     total cpu time spent up to now is        3.8 secs

     Computing kpt #:    63  of   221
     total cpu time spent up to now is        3.8 secs

     Computing kpt #:    64  of   221
     total cpu time spent up to now is        3.9 secs

     Computing kpt #:    65  of   221
     total cpu time spent up to now is        3.9 secs

     Computing kpt #:    66  of   221
     total cpu time spent up to now is        4.0 secs

     Computing kpt #:    67  of   221
     total cpu time spent up to now is        4.0 secs

     Computing kpt #:    68  of   221
     total cpu time spent up to now is        4.1 secs

     Computing kpt #:    69  of   221
     total cpu time spent up to now is        4.1 secs

     Computing kpt #:    70  of   221
     total cpu time spent up to now is        4.2 secs

     Computing kpt #:    71  of   221
     total cpu time spent up to now is        4.2 secs

     Computing kpt #:    72  of   221
     total cpu time spent up to now is        4.3 secs

     Computing kpt #:    73  of   221
     total cpu time spent up to now is        4.3 secs

     Computing kpt #:    74  of   221
     total cpu time spent up to now is        4.3 secs

     Computing kpt #:    75  of   221
     total cpu time spent up to now is        4.4 secs

     Computing kpt #:    76  of   221
     total cpu time spent up to now is        4.4 secs

     Computing kpt #:    77  of   221
     total cpu time spent up to now is        4.5 secs

     Computing kpt #:    78  of   221
     total cpu time spent up to now is        4.5 secs

     Computing kpt #:    79  of   221
     total cpu time spent up to now is        4.6 secs

     Computing kpt #:    80  of   221
     total cpu time spent up to now is        4.6 secs

     Computing kpt #:    81  of   221
     total cpu time spent up to now is        4.7 secs

     Computing kpt #:    82  of   221
     total cpu time spent up to now is        4.7 secs

     Computing kpt #:    83  of   221
     total cpu time spent up to now is        4.8 secs

     Computing kpt #:    84  of   221
     total cpu time spent up to now is        4.8 secs

     Computing kpt #:    85  of   221
     total cpu time spent up to now is        4.8 secs

     Computing kpt #:    86  of   221
     total cpu time spent up to now is        4.9 secs

     Computing kpt #:    87  of   221
     total cpu time spent up to now is        4.9 secs

     Computing kpt #:    88  of   221
     total cpu time spent up to now is        5.0 secs

     Computing kpt #:    89  of   221
     total cpu time spent up to now is        5.0 secs

     Computing kpt #:    90  of   221
     total cpu time spent up to now is        5.0 secs

     Computing kpt #:    91  of   221
     total cpu time spent up to now is        5.1 secs

     Computing kpt #:    92  of   221
     total cpu time spent up to now is        5.1 secs

     Computing kpt #:    93  of   221
     total cpu time spent up to now is        5.2 secs

     Computing kpt #:    94  of   221
     total cpu time spent up to now is        5.2 secs

     Computing kpt #:    95  of   221
     total cpu time spent up to now is        5.3 secs

     Computing kpt #:    96  of   221
     total cpu time spent up to now is        5.3 secs

     Computing kpt #:    97  of   221
     total cpu time spent up to now is        5.3 secs

     Computing kpt #:    98  of   221
     total cpu time spent up to now is        5.4 secs

     Computing kpt #:    99  of   221
     total cpu time spent up to now is        5.4 secs

     Computing kpt #:   100  of   221
     total cpu time spent up to now is        5.5 secs

     Computing kpt #:   101  of   221
     total cpu time spent up to now is        5.5 secs

     Computing kpt #:   102  of   221
     total cpu time spent up to now is        5.6 secs

     Computing kpt #:   103  of   221
     total cpu time spent up to now is        5.6 secs

     Computing kpt #:   104  of   221
     total cpu time spent up to now is        5.6 secs

     Computing kpt #:   105  of   221
     total cpu time spent up to now is        5.7 secs

     Computing kpt #:   106  of   221
     total cpu time spent up to now is        5.7 secs

     Computing kpt #:   107  of   221
     total cpu time spent up to now is        5.8 secs

     Computing kpt #:   108  of   221
     total cpu time spent up to now is        5.8 secs

     Computing kpt #:   109  of   221
     total cpu time spent up to now is        5.8 secs

     Computing kpt #:   110  of   221
     total cpu time spent up to now is        5.9 secs

     Computing kpt #:   111  of   221
     total cpu time spent up to now is        5.9 secs

     Computing kpt #:   112  of   221
     total cpu time spent up to now is        6.0 secs

     Computing kpt #:   113  of   221
     total cpu time spent up to now is        6.0 secs

     Computing kpt #:   114  of   221
     total cpu time spent up to now is        6.1 secs

     Computing kpt #:   115  of   221
     total cpu time spent up to now is        6.1 secs

     Computing kpt #:   116  of   221
     total cpu time spent up to now is        6.1 secs

     Computing kpt #:   117  of   221
     total cpu time spent up to now is        6.2 secs

     Computing kpt #:   118  of   221
     total cpu time spent up to now is        6.2 secs

     Computing kpt #:   119  of   221
     total cpu time spent up to now is        6.3 secs

     Computing kpt #:   120  of   221
     total cpu time spent up to now is        6.3 secs

     Computing kpt #:   121  of   221
     total cpu time spent up to now is        6.3 secs

     Computing kpt #:   122  of   221
     total cpu time spent up to now is        6.4 secs

     Computing kpt #:   123  of   221
     total cpu time spent up to now is        6.4 secs

     Computing kpt #:   124  of   221
     total cpu time spent up to now is        6.5 secs

     Computing kpt #:   125  of   221
     total cpu time spent up to now is        6.5 secs

     Computing kpt #:   126  of   221
     total cpu time spent up to now is        6.5 secs

     Computing kpt #:   127  of   221
     total cpu time spent up to now is        6.6 secs

     Computing kpt #:   128  of   221
     total cpu time spent up to now is        6.6 secs

     Computing kpt #:   129  of   221
     total cpu time spent up to now is        6.7 secs

     Computing kpt #:   130  of   221
     total cpu time spent up to now is        6.7 secs

     Computing kpt #:   131  of   221
     total cpu time spent up to now is        6.8 secs

     Computing kpt #:   132  of   221
     total cpu time spent up to now is        6.8 secs

     Computing kpt #:   133  of   221
     total cpu time spent up to now is        6.8 secs

     Computing kpt #:   134  of   221
     total cpu time spent up to now is        6.9 secs

     Computing kpt #:   135  of   221
     total cpu time spent up to now is        6.9 secs

     Computing kpt #:   136  of   221
     total cpu time spent up to now is        7.0 secs

     Computing kpt #:   137  of   221
     total cpu time spent up to now is        7.0 secs

     Computing kpt #:   138  of   221
     total cpu time spent up to now is        7.1 secs

     Computing kpt #:   139  of   221
     total cpu time spent up to now is        7.1 secs

     Computing kpt #:   140  of   221
     total cpu time spent up to now is        7.1 secs

     Computing kpt #:   141  of   221
     total cpu time spent up to now is        7.2 secs

     Computing kpt #:   142  of   221
     total cpu time spent up to now is        7.2 secs

     Computing kpt #:   143  of   221
     total cpu time spent up to now is        7.3 secs

     Computing kpt #:   144  of   221
     total cpu time spent up to now is        7.3 secs

     Computing kpt #:   145  of   221
     total cpu time spent up to now is        7.4 secs

     Computing kpt #:   146  of   221
     total cpu time spent up to now is        7.4 secs

     Computing kpt #:   147  of   221
     total cpu time spent up to now is        7.4 secs

     Computing kpt #:   148  of   221
     total cpu time spent up to now is        7.5 secs

     Computing kpt #:   149  of   221
     total cpu time spent up to now is        7.5 secs

     Computing kpt #:   150  of   221
     total cpu time spent up to now is        7.6 secs

     Computing kpt #:   151  of   221
     total cpu time spent up to now is        7.6 secs

     Computing kpt #:   152  of   221
     total cpu time spent up to now is        7.6 secs

     Computing kpt #:   153  of   221
     total cpu time spent up to now is        7.7 secs

     Computing kpt #:   154  of   221
     total cpu time spent up to now is        7.7 secs

     Computing kpt #:   155  of   221
     total cpu time spent up to now is        7.8 secs

     Computing kpt #:   156  of   221
     total cpu time spent up to now is        7.8 secs

     Computing kpt #:   157  of   221
     total cpu time spent up to now is        7.8 secs

     Computing kpt #:   158  of   221
     total cpu time spent up to now is        7.9 secs

     Computing kpt #:   159  of   221
     total cpu time spent up to now is        7.9 secs

     Computing kpt #:   160  of   221
     total cpu time spent up to now is        8.0 secs

     Computing kpt #:   161  of   221
     total cpu time spent up to now is        8.0 secs

     Computing kpt #:   162  of   221
     total cpu time spent up to now is        8.0 secs

     Computing kpt #:   163  of   221
     total cpu time spent up to now is        8.1 secs

     Computing kpt #:   164  of   221
     total cpu time spent up to now is        8.1 secs

     Computing kpt #:   165  of   221
     total cpu time spent up to now is        8.2 secs

     Computing kpt #:   166  of   221
     total cpu time spent up to now is        8.2 secs

     Computing kpt #:   167  of   221
     total cpu time spent up to now is        8.2 secs

     Computing kpt #:   168  of   221
     total cpu time spent up to now is        8.3 secs

     Computing kpt #:   169  of   221
     total cpu time spent up to now is        8.3 secs

     Computing kpt #:   170  of   221
     total cpu time spent up to now is        8.4 secs

     Computing kpt #:   171  of   221
     total cpu time spent up to now is        8.4 secs

     Computing kpt #:   172  of   221
     total cpu time spent up to now is        8.4 secs

     Computing kpt #:   173  of   221
     total cpu time spent up to now is        8.5 secs

     Computing kpt #:   174  of   221
     total cpu time spent up to now is        8.5 secs

     Computing kpt #:   175  of   221
     total cpu time spent up to now is        8.6 secs

     Computing kpt #:   176  of   221
     total cpu time spent up to now is        8.6 secs

     Computing kpt #:   177  of   221
     total cpu time spent up to now is        8.6 secs

     Computing kpt #:   178  of   221
     total cpu time spent up to now is        8.7 secs

     Computing kpt #:   179  of   221
     total cpu time spent up to now is        8.7 secs

     Computing kpt #:   180  of   221
     total cpu time spent up to now is        8.8 secs

     Computing kpt #:   181  of   221
     total cpu time spent up to now is        8.8 secs

     Computing kpt #:   182  of   221
     total cpu time spent up to now is        8.9 secs

     Computing kpt #:   183  of   221
     total cpu time spent up to now is        8.9 secs

     Computing kpt #:   184  of   221
     total cpu time spent up to now is        9.0 secs

     Computing kpt #:   185  of   221
     total cpu time spent up to now is        9.0 secs

     Computing kpt #:   186  of   221
     total cpu time spent up to now is        9.1 secs

     Computing kpt #:   187  of   221
     total cpu time spent up to now is        9.1 secs

     Computing kpt #:   188  of   221
     total cpu time spent up to now is        9.1 secs

     Computing kpt #:   189  of   221
     total cpu time spent up to now is        9.2 secs

     Computing kpt #:   190  of   221
     total cpu time spent up to now is        9.2 secs

     Computing kpt #:   191  of   221
     total cpu time spent up to now is        9.3 secs

     Computing kpt #:   192  of   221
     total cpu time spent up to now is        9.4 secs

     Computing kpt #:   193  of   221
     total cpu time spent up to now is        9.4 secs

     Computing kpt #:   194  of   221
     total cpu time spent up to now is        9.5 secs

     Computing kpt #:   195  of   221
     total cpu time spent up to now is        9.5 secs

     Computing kpt #:   196  of   221
     total cpu time spent up to now is        9.6 secs

     Computing kpt #:   197  of   221
     total cpu time spent up to now is        9.6 secs

     Computing kpt #:   198  of   221
     total cpu time spent up to now is        9.7 secs

     Computing kpt #:   199  of   221
     total cpu time spent up to now is        9.7 secs

     Computing kpt #:   200  of   221
     total cpu time spent up to now is        9.8 secs

     Computing kpt #:   201  of   221
     total cpu time spent up to now is        9.8 secs

     Computing kpt #:   202  of   221
     total cpu time spent up to now is        9.9 secs

     Computing kpt #:   203  of   221
     total cpu time spent up to now is        9.9 secs

     Computing kpt #:   204  of   221
     total cpu time spent up to now is       10.0 secs

     Computing kpt #:   205  of   221
     total cpu time spent up to now is       10.0 secs

     Computing kpt #:   206  of   221
     total cpu time spent up to now is       10.1 secs

     Computing kpt #:   207  of   221
     total cpu time spent up to now is       10.1 secs

     Computing kpt #:   208  of   221
     total cpu time spent up to now is       10.2 secs

     Computing kpt #:   209  of   221
     total cpu time spent up to now is       10.2 secs

     Computing kpt #:   210  of   221
     total cpu time spent up to now is       10.2 secs

     Computing kpt #:   211  of   221
     total cpu time spent up to now is       10.3 secs

     Computing kpt #:   212  of   221
     total cpu time spent up to now is       10.3 secs

     Computing kpt #:   213  of   221
     total cpu time spent up to now is       10.4 secs

     Computing kpt #:   214  of   221
     total cpu time spent up to now is       10.4 secs

     Computing kpt #:   215  of   221
     total cpu time spent up to now is       10.5 secs

     Computing kpt #:   216  of   221
     total cpu time spent up to now is       10.5 secs

     Computing kpt #:   217  of   221
     total cpu time spent up to now is       10.6 secs

     Computing kpt #:   218  of   221
     total cpu time spent up to now is       10.6 secs

     Computing kpt #:   219  of   221
     total cpu time spent up to now is       10.6 secs

     Computing kpt #:   220  of   221
     total cpu time spent up to now is       10.7 secs

     Computing kpt #:   221  of   221
     total cpu time spent up to now is       10.7 secs

     ethr =  1.25E-10,  avg # of iterations = 32.2

     total cpu time spent up to now is       10.7 secs

     End of band structure calculation

          k =-0.5000 0.5000 0.5000 (   754 PWs)   bands (ev):

    -2.6967   0.6561   7.9424   7.9424  14.0688  16.0566  16.0566  18.8286
    24.7253  25.7929

          k =-0.4958 0.4958 0.4958 (   754 PWs)   bands (ev):

    -2.6983   0.6582   7.9425   7.9425  14.0690  16.0569  16.0569  18.8286
    24.7243  25.7886

          k =-0.4917 0.4917 0.4917 (   754 PWs)   bands (ev):

    -2.7030   0.6645   7.9429   7.9429  14.0695  16.0577  16.0577  18.8286
    24.7214  25.7759

          k =-0.4875 0.4875 0.4875 (   754 PWs)   bands (ev):

    -2.7107   0.6750   7.9436   7.9436  14.0703  16.0591  16.0591  18.8285
    24.7166  25.7549

          k =-0.4833 0.4833 0.4833 (   754 PWs)   bands (ev):

    -2.7216   0.6896   7.9445   7.9445  14.0714  16.0611  16.0611  18.8284
    24.7098  25.7260

          k =-0.4792 0.4792 0.4792 (   754 PWs)   bands (ev):

    -2.7353   0.7082   7.9457   7.9457  14.0729  16.0637  16.0637  18.8282
    24.7012  25.6898

          k =-0.4750 0.4750 0.4750 (   754 PWs)   bands (ev):

    -2.7520   0.7308   7.9472   7.9472  14.0747  16.0667  16.0667  18.8280
    24.6907  25.6467

          k =-0.4708 0.4708 0.4708 (   748 PWs)   bands (ev):

    -2.7713   0.7571   7.9489   7.9489  14.0768  16.0704  16.0704  18.8277
    24.6785  25.5975

          k =-0.4667 0.4667 0.4667 (   748 PWs)   bands (ev):

    -2.7933   0.7872   7.9509   7.9509  14.0792  16.0746  16.0746  18.8274
    24.6646  25.5426

          k =-0.4625 0.4625 0.4625 (   748 PWs)   bands (ev):

    -2.8177   0.8207   7.9531   7.9531  14.0819  16.0793  16.0793  18.8269
    24.6489  25.4827

          k =-0.4583 0.4583 0.4583 (   748 PWs)   bands (ev):

    -2.8445   0.8577   7.9557   7.9557  14.0850  16.0846  16.0846  18.8264
    24.6317  25.4184

          k =-0.4542 0.4542 0.4542 (   748 PWs)   bands (ev):

    -2.8734   0.8979   7.9585   7.9585  14.0884  16.0904  16.0904  18.8258
    24.6130  25.3502

          k =-0.4500 0.4500 0.4500 (   751 PWs)   bands (ev):

    -2.9044   0.9412   7.9615   7.9615  14.0921  16.0968  16.0968  18.8249
    24.5928  25.2787

          k =-0.4458 0.4458 0.4458 (   751 PWs)   bands (ev):

    -2.9372   0.9874   7.9648   7.9648  14.0962  16.1036  16.1036  18.8240
    24.5713  25.2043

          k =-0.4417 0.4417 0.4417 (   751 PWs)   bands (ev):

    -2.9717   1.0364   7.9684   7.9684  14.1005  16.1110  16.1110  18.8229
    24.5486  25.1274

          k =-0.4375 0.4375 0.4375 (   751 PWs)   bands (ev):

    -3.0078   1.0880   7.9723   7.9723  14.1052  16.1188  16.1188  18.8215
    24.5247  25.0484

          k =-0.4333 0.4333 0.4333 (   745 PWs)   bands (ev):

    -3.0454   1.1421   7.9764   7.9764  14.1103  16.1272  16.1272  18.8200
    24.4997  24.9677

          k =-0.4292 0.4292 0.4292 (   745 PWs)   bands (ev):

    -3.0842   1.1986   7.9807   7.9807  14.1156  16.1360  16.1360  18.8182
    24.4738  24.8855

          k =-0.4250 0.4250 0.4250 (   751 PWs)   bands (ev):

    -3.1242   1.2573   7.9853   7.9853  14.1212  16.1453  16.1453  18.8160
    24.4470  24.8021

          k =-0.4208 0.4208 0.4208 (   751 PWs)   bands (ev):

    -3.1653   1.3182   7.9902   7.9902  14.1272  16.1551  16.1551  18.8136
    24.4195  24.7178

          k =-0.4167 0.4167 0.4167 (   745 PWs)   bands (ev):

    -3.2073   1.3810   7.9953   7.9953  14.1335  16.1653  16.1653  18.8108
    24.3914  24.6328

          k =-0.4125 0.4125 0.4125 (   745 PWs)   bands (ev):

    -3.2502   1.4457   8.0007   8.0007  14.1402  16.1760  16.1760  18.8077
    24.3627  24.5473

          k =-0.4083 0.4083 0.4083 (   745 PWs)   bands (ev):

    -3.2938   1.5121   8.0064   8.0064  14.1471  16.1870  16.1870  18.8041
    24.3336  24.4614

          k =-0.4042 0.4042 0.4042 (   745 PWs)   bands (ev):

    -3.3380   1.5802   8.0123   8.0123  14.1544  16.1985  16.1985  18.8001
    24.3042  24.3753

          k =-0.4000 0.4000 0.4000 (   745 PWs)   bands (ev):

    -3.3828   1.6500   8.0184   8.0184  14.1620  16.2103  16.2103  18.7956
    24.2745  24.2892

          k =-0.3958 0.3958 0.3958 (   745 PWs)   bands (ev):

    -3.4281   1.7212   8.0248   8.0248  14.1699  16.2225  16.2225  18.7905
    24.2032  24.2032

          k =-0.3917 0.3917 0.3917 (   745 PWs)   bands (ev):

    -3.4738   1.7938   8.0314   8.0314  14.1781  16.2350  16.2350  18.7849
    24.1174  24.1174

          k =-0.3875 0.3875 0.3875 (   751 PWs)   bands (ev):

    -3.5198   1.8678   8.0383   8.0383  14.1866  16.2479  16.2479  18.7787
    24.0319  24.0319

          k =-0.3833 0.3833 0.3833 (   751 PWs)   bands (ev):

    -3.5661   1.9431   8.0455   8.0455  14.1955  16.2610  16.2610  18.7718
    23.9468  23.9468

          k =-0.3792 0.3792 0.3792 (   751 PWs)   bands (ev):

    -3.6125   2.0196   8.0528   8.0528  14.2047  16.2745  16.2745  18.7642
    23.8623  23.8623

          k =-0.3750 0.3750 0.3750 (   751 PWs)   bands (ev):

    -3.6592   2.0972   8.0604   8.0604  14.2142  16.2882  16.2882  18.7559
    23.7784  23.7784

          k =-0.3708 0.3708 0.3708 (   751 PWs)   bands (ev):

    -3.7059   2.1759   8.0683   8.0683  14.2240  16.3021  16.3021  18.7468
    23.6952  23.6952

          k =-0.3667 0.3667 0.3667 (   751 PWs)   bands (ev):

    -3.7526   2.2557   8.0764   8.0764  14.2341  16.3163  16.3163  18.7368
    23.6128  23.6128

          k =-0.3625 0.3625 0.3625 (   751 PWs)   bands (ev):

    -3.7994   2.3364   8.0847   8.0847  14.2446  16.3306  16.3306  18.7261
    23.5312  23.5312

          k =-0.3583 0.3583 0.3583 (   751 PWs)   bands (ev):

    -3.8461   2.4181   8.0933   8.0933  14.2553  16.3451  16.3451  18.7143
    23.4506  23.4506

          k =-0.3542 0.3542 0.3542 (   751 PWs)   bands (ev):

    -3.8928   2.5007   8.1020   8.1020  14.2663  16.3597  16.3597  18.7017
    23.3710  23.3710

          k =-0.3500 0.3500 0.3500 (   751 PWs)   bands (ev):

    -3.9394   2.5842   8.1110   8.1110  14.2777  16.3744  16.3744  18.6880
    23.2924  23.2924

          k =-0.3458 0.3458 0.3458 (   751 PWs)   bands (ev):

    -3.9858   2.6684   8.1203   8.1203  14.2893  16.3891  16.3891  18.6734
    23.2150  23.2150

          k =-0.3417 0.3417 0.3417 (   751 PWs)   bands (ev):

    -4.0320   2.7535   8.1297   8.1297  14.3013  16.4039  16.4039  18.6576
    23.1389  23.1389

          k =-0.3375 0.3375 0.3375 (   751 PWs)   bands (ev):

    -4.0780   2.8392   8.1394   8.1394  14.3136  16.4186  16.4186  18.6408
    23.0640  23.0640

          k =-0.3333 0.3333 0.3333 (   751 PWs)   bands (ev):

    -4.1238   2.9257   8.1493   8.1493  14.3261  16.4333  16.4333  18.6228
    22.9904  22.9904

          k =-0.3292 0.3292 0.3292 (   751 PWs)   bands (ev):

    -4.1694   3.0128   8.1593   8.1593  14.3389  16.4480  16.4480  18.6036
    22.9183  22.9183

          k =-0.3250 0.3250 0.3250 (   751 PWs)   bands (ev):

    -4.2147   3.1006   8.1696   8.1696  14.3521  16.4625  16.4625  18.5833
    22.8477  22.8477

          k =-0.3208 0.3208 0.3208 (   751 PWs)   bands (ev):

    -4.2597   3.1890   8.1801   8.1801  14.3655  16.4768  16.4768  18.5617
    22.7786  22.7786

          k =-0.3167 0.3167 0.3167 (   751 PWs)   bands (ev):

    -4.3043   3.2780   8.1908   8.1908  14.3792  16.4909  16.4909  18.5389
    22.7111  22.7111

          k =-0.3125 0.3125 0.3125 (   751 PWs)   bands (ev):

    -4.3486   3.3675   8.2017   8.2017  14.3931  16.5048  16.5048  18.5148
    22.6452  22.6452

          k =-0.3083 0.3083 0.3083 (   751 PWs)   bands (ev):

    -4.3926   3.4576   8.2128   8.2128  14.4074  16.5184  16.5184  18.4894
    22.5811  22.5811

          k =-0.3042 0.3042 0.3042 (   751 PWs)   bands (ev):

    -4.4362   3.5481   8.2241   8.2241  14.4219  16.5317  16.5317  18.4627
    22.5188  22.5188

          k =-0.3000 0.3000 0.3000 (   751 PWs)   bands (ev):

    -4.4794   3.6391   8.2355   8.2355  14.4366  16.5446  16.5446  18.4347
    22.4584  22.4584

          k =-0.2958 0.2958 0.2958 (   751 PWs)   bands (ev):

    -4.5222   3.7305   8.2471   8.2471  14.4516  16.5570  16.5570  18.4054
    22.3998  22.3998

          k =-0.2917 0.2917 0.2917 (   757 PWs)   bands (ev):

    -4.5646   3.8224   8.2589   8.2589  14.4669  16.5690  16.5690  18.3748
    22.3432  22.3432

          k =-0.2875 0.2875 0.2875 (   757 PWs)   bands (ev):

    -4.6065   3.9146   8.2709   8.2709  14.4824  16.5804  16.5804  18.3429
    22.2887  22.2887

          k =-0.2833 0.2833 0.2833 (   757 PWs)   bands (ev):

    -4.6481   4.0072   8.2830   8.2830  14.4981  16.5913  16.5913  18.3097
    22.2363  22.2363

[...]
    23.1403  23.1403

          k =-0.0250 0.0250 0.0250 (   725 PWs)   bands (ev):

    -6.1084   8.9146   8.9776   8.9776  14.8040  16.0312  16.0445  16.0445
    23.1713  23.1713

          k =-0.0208 0.0208 0.0208 (   725 PWs)   bands (ev):

    -6.1120   8.9364   8.9803   8.9803  14.7927  16.0300  16.0394  16.0394
    23.1984  23.1984

          k =-0.0167 0.0167 0.0167 (   725 PWs)   bands (ev):

    -6.1150   8.9543   8.9825   8.9825  14.7833  16.0291  16.0353  16.0353
    23.2212  23.2212

          k =-0.0125 0.0125 0.0125 (   725 PWs)   bands (ev):

    -6.1173   8.9683   8.9842   8.9842  14.7759  16.0285  16.0320  16.0320
    23.2393  23.2393

          k =-0.0083 0.0083 0.0083 (   725 PWs)   bands (ev):

    -6.1189   8.9784   8.9855   8.9855  14.7705  16.0281  16.0297  16.0297
    23.2524  23.2524

          k =-0.0042 0.0042 0.0042 (   725 PWs)   bands (ev):

    -6.1199   8.9845   8.9862   8.9862  14.7673  16.0279  16.0283  16.0283
    23.2604  23.2604

          k = 0.0000 0.0000 0.0000 (   725 PWs)   bands (ev):

    -6.1202   8.9865   8.9865   8.9865  14.7662  16.0278  16.0278  16.0278
    23.2631  23.2631

          k =-0.0167 0.0000-0.0000 (   725 PWs)   bands (ev):

    -6.1185   8.9803   8.9828   8.9828  14.7720  16.0228  16.0330  16.0330
    23.2328  23.2651

          k =-0.0333 0.0000-0.0000 (   725 PWs)   bands (ev):

    -6.1132   8.9620   8.9720   8.9720  14.7892  16.0077  16.0486  16.0486
    23.1452  23.2710

          k =-0.0500-0.0000 0.0000 (   729 PWs)   bands (ev):

    -6.1044   8.9316   8.9541   8.9541  14.8175  15.9827  16.0745  16.0745
    23.0090  23.2810

          k =-0.0667 0.0000-0.0000 (   729 PWs)   bands (ev):

    -6.0921   8.8897   8.9292   8.9292  14.8562  15.9484  16.1103  16.1103
    22.8349  23.2949

          k =-0.0833-0.0000 0.0000 (   733 PWs)   bands (ev):

    -6.0763   8.8368   8.8978   8.8978  14.9041  15.9053  16.1560  16.1560
    22.6332  23.3126

          k =-0.1000-0.0000 0.0000 (   733 PWs)   bands (ev):

    -6.0570   8.7735   8.8600   8.8600  14.9600  15.8543  16.2111  16.2111
    22.4122  23.3345

          k =-0.1167-0.0000 0.0000 (   733 PWs)   bands (ev):

    -6.0341   8.7006   8.8163   8.8163  15.0219  15.7968  16.2752  16.2752
    22.1786  23.3602

          k =-0.1333 0.0000-0.0000 (   733 PWs)   bands (ev):

    -6.0078   8.6186   8.7670   8.7670  15.0868  15.7349  16.3479  16.3479
    21.9376  23.3900

          k =-0.1500-0.0000 0.0000 (   733 PWs)   bands (ev):

    -5.9780   8.5285   8.7126   8.7126  15.1499  15.6728  16.4287  16.4287
    21.6933  23.4237

          k =-0.1667-0.0000 0.0000 (   733 PWs)   bands (ev):

    -5.9447   8.4308   8.6536   8.6536  15.2014  15.6194  16.5172  16.5172
    21.4491  23.4613

          k =-0.1833 0.0000-0.0000 (   733 PWs)   bands (ev):

    -5.9080   8.3264   8.5903   8.5903  15.2232  15.5915  16.6128  16.6128
    21.2078  23.5028

          k =-0.2000-0.0000 0.0000 (   733 PWs)   bands (ev):

    -5.8678   8.2158   8.5233   8.5233  15.1983  15.6052  16.7151  16.7151
    20.9724  23.5483

          k =-0.2167 0.0000-0.0000 (   737 PWs)   bands (ev):

    -5.8241   8.0996   8.4530   8.4530  15.1327  15.6528  16.8235  16.8235
    20.7452  23.5977

          k =-0.2333-0.0000 0.0000 (   737 PWs)   bands (ev):

    -5.7770   7.9785   8.3799   8.3799  15.0433  15.7158  16.9376  16.9376
    20.5291  23.6510

          k =-0.2500 0.0000 0.0000 (   737 PWs)   bands (ev):

    -5.7265   7.8528   8.3043   8.3043  14.9403  15.7820  17.0569  17.0569
    20.3267  23.7082

          k =-0.2667 0.0000-0.0000 (   745 PWs)   bands (ev):

    -5.6726   7.7231   8.2266   8.2266  14.8285  15.8444  17.1810  17.1810
    20.1410  23.7693

          k =-0.2833 0.0000-0.0000 (   737 PWs)   bands (ev):

    -5.6153   7.5897   8.1473   8.1473  14.7104  15.8980  17.3095  17.3095
    19.9751  23.8343

          k =-0.3000-0.0000 0.0000 (   745 PWs)   bands (ev):

    -5.5546   7.4530   8.0666   8.0666  14.5874  15.9390  17.4418  17.4418
    19.8318  23.9031

          k =-0.3167-0.0000 0.0000 (   737 PWs)   bands (ev):

    -5.4906   7.3133   7.9849   7.9849  14.4603  15.9642  17.5778  17.5778
    19.7143  23.9757

          k =-0.3333-0.0000 0.0000 (   737 PWs)   bands (ev):

    -5.4232   7.1709   7.9026   7.9026  14.3298  15.9707  17.7168  17.7168
    19.6246  24.0521

          k =-0.3500 0.0000-0.0000 (   737 PWs)   bands (ev):

    -5.3526   7.0259   7.8199   7.8199  14.1964  15.9572  17.8587  17.8587
    19.5642  24.1324

          k =-0.3667 0.0000-0.0000 (   737 PWs)   bands (ev):

    -5.2786   6.8785   7.7371   7.7371  14.0604  15.9232  18.0030  18.0030
    19.5335  24.2164

          k =-0.3833-0.0000 0.0000 (   745 PWs)   bands (ev):

    -5.2015   6.7290   7.6544   7.6544  13.9223  15.8695  18.1496  18.1496
    19.5316  24.3041

          k =-0.4000-0.0000 0.0000 (   745 PWs)   bands (ev):

    -5.1211   6.5775   7.5721   7.5721  13.7824  15.7979  18.2980  18.2980
    19.5565  24.3955

          k =-0.4167 0.0000-0.0000 (   745 PWs)   bands (ev):

    -5.0375   6.4240   7.4904   7.4904  13.6410  15.7112  18.4481  18.4481
    19.6054  24.4907

          k =-0.4333 0.0000-0.0000 (   733 PWs)   bands (ev):

    -4.9507   6.2687   7.4094   7.4094  13.4984  15.6122  18.5996  18.5996
    19.6753  24.5895

          k =-0.4500 0.0000-0.0000 (   729 PWs)   bands (ev):

    -4.8608   6.1117   7.3294   7.3294  13.3550  15.5039  18.7522  18.7522
    19.7628  24.6918

          k =-0.4667-0.0000 0.0000 (   729 PWs)   bands (ev):

    -4.7679   5.9531   7.2505   7.2505  13.2112  15.3891  18.9056  18.9056
    19.8650  24.7977

          k =-0.4833-0.0000 0.0000 (   729 PWs)   bands (ev):

    -4.6719   5.7930   7.1730   7.1730  13.0673  15.2703  19.0597  19.0597
    19.9792  24.9072

          k =-0.5000 0.0000 0.0000 (   729 PWs)   bands (ev):

    -4.5730   5.6313   7.0968   7.0968  12.9236  15.1493  19.2142  19.2142
    20.1030  25.0200

          k =-0.5167 0.0000-0.0000 (   729 PWs)   bands (ev):

    -4.4711   5.4683   7.0222   7.0222  12.7807  15.0280  19.3689  19.3689
    20.2345  25.1363

          k =-0.5333 0.0000-0.0000 (   729 PWs)   bands (ev):

    -4.3664   5.3039   6.9492   6.9492  12.6389  14.9075  19.5236  19.5236
    20.3719  25.2558

          k =-0.5500 0.0000-0.0000 (   729 PWs)   bands (ev):

    -4.2589   5.1382   6.8781   6.8781  12.4986  14.7889  19.6781  19.6781
    20.5137  25.3786

          k =-0.5667 0.0000-0.0000 (   729 PWs)   bands (ev):

    -4.1486   4.9714   6.8088   6.8088  12.3602  14.6730  19.8322  19.8322
    20.6587  25.5045

          k =-0.5833-0.0000 0.0000 (   729 PWs)   bands (ev):

    -4.0357   4.8035   6.7416   6.7416  12.2242  14.5604  19.9856  19.9856
    20.8058  25.6335

          k =-0.6000-0.0000 0.0000 (   725 PWs)   bands (ev):

    -3.9202   4.6346   6.6764   6.6764  12.0910  14.4515  20.1381  20.1381
    20.9540  25.7654

          k =-0.6167-0.0000 0.0000 (   725 PWs)   bands (ev):

    -3.8023   4.4649   6.6133   6.6133  11.9609  14.3467  20.2895  20.2895
    21.1025  25.9000

          k =-0.6333-0.0000 0.0000 (   733 PWs)   bands (ev):

    -3.6821   4.2944   6.5525   6.5525  11.8343  14.2461  20.4395  20.4395
    21.2506  26.0372

          k =-0.6500-0.0000 0.0000 (   733 PWs)   bands (ev):

    -3.5596   4.1234   6.4940   6.4940  11.7116  14.1499  20.5879  20.5879
    21.3974  26.1769

          k =-0.6667-0.0000 0.0000 (   733 PWs)   bands (ev):

    -3.4350   3.9520   6.4378   6.4378  11.5931  14.0583  20.7343  20.7343
    21.5425  26.3189

          k =-0.6833 0.0000-0.0000 (   737 PWs)   bands (ev):

    -3.3085   3.7804   6.3841   6.3841  11.4790  13.9712  20.8784  20.8784
    21.6851  26.4628

          k =-0.7000 0.0000-0.0000 (   745 PWs)   bands (ev):

    -3.1803   3.6088   6.3328   6.3328  11.3697  13.8887  21.0200  21.0200
    21.8248  26.6084

          k =-0.7167 0.0000-0.0000 (   741 PWs)   bands (ev):

    -3.0505   3.4376   6.2841   6.2841  11.2654  13.8109  21.1585  21.1585
    21.9608  26.7554

          k =-0.7333 0.0000-0.0000 (   741 PWs)   bands (ev):

    -2.9195   3.2671   6.2379   6.2379  11.1663  13.7377  21.2937  21.2937
    22.0928  26.9035

          k =-0.7500 0.0000-0.0000 (   741 PWs)   bands (ev):

    -2.7876   3.0975   6.1943   6.1943  11.0725  13.6690  21.4250  21.4250
    22.2202  27.0520

          k =-0.7667-0.0000 0.0000 (   741 PWs)   bands (ev):

    -2.6550   2.9294   6.1534   6.1534  10.9843  13.6050  21.5521  21.5521
    22.3425  27.2006

          k =-0.7833-0.0000 0.0000 (   749 PWs)   bands (ev):

    -2.5223   2.7631   6.1152   6.1152  10.9017  13.5455  21.6743  21.6743
    22.4592  27.3485

          k =-0.8000-0.0000 0.0000 (   749 PWs)   bands (ev):

    -2.3899   2.5994   6.0796   6.0796  10.8250  13.4905  21.7912  21.7912
    22.5697  27.4951

          k =-0.8167-0.0000 0.0000 (   749 PWs)   bands (ev):

    -2.2585   2.4389   6.0469   6.0469  10.7541  13.4400  21.9021  21.9021
    22.6736  27.6394

          k =-0.8333 0.0000-0.0000 (   745 PWs)   bands (ev):

    -2.1289   2.2824   6.0169   6.0169  10.6891  13.3940  22.0065  22.0065
    22.7705  27.7804

          k =-0.8500 0.0000-0.0000 (   745 PWs)   bands (ev):

    -2.0019   2.1309   5.9896   5.9896  10.6302  13.3525  22.1037  22.1037
    22.8598  27.9168

          k =-0.8667 0.0000-0.0000 (   745 PWs)   bands (ev):

    -1.8789   1.9858   5.9652   5.9652  10.5774  13.3154  22.1931  22.1931
    22.9412  28.0472

          k =-0.8833 0.0000-0.0000 (   741 PWs)   bands (ev):

    -1.7613   1.8485   5.9437   5.9437  10.5308  13.2827  22.2739  22.2739
    23.0141  28.1699

          k =-0.9000 0.0000-0.0000 (   741 PWs)   bands (ev):

    -1.6509   1.7210   5.9249   5.9249  10.4902  13.2544  22.3456  22.3456
    23.0781  28.2829

          k =-0.9167 0.0000-0.0000 (   740 PWs)   bands (ev):

    -1.5500   1.6055   5.9090   5.9090  10.4559  13.2305  22.4075  22.4075
    23.1330  28.3842

          k =-0.9333-0.0000 0.0000 (   740 PWs)   bands (ev):

    -1.4611   1.5047   5.8960   5.8960  10.4278  13.2110  22.4590  22.4590
    23.1784  28.4714

          k =-0.9500-0.0000 0.0000 (   740 PWs)   bands (ev):

    -1.3874   1.4216   5.8859   5.8859  10.4059  13.1958  22.4997  22.4997
    23.2140  28.5424

          k =-0.9667-0.0000 0.0000 (   740 PWs)   bands (ev):

    -1.3317   1.3592   5.8787   5.8787  10.3903  13.1849  22.5290  22.5290
    23.2396  28.5948

          k =-0.9833-0.0000 0.0000 (   740 PWs)   bands (ev):

    -1.2970   1.3205   5.8743   5.8743  10.3809  13.1784  22.5468  22.5468
    23.2550  28.6271

          k =-1.0000 0.0000 0.0000 (   740 PWs)   bands (ev):

    -1.2852   1.3074   5.8729   5.8729  10.3778  13.1762  22.5527  22.5527
    23.2601  28.6380

          k =-1.0000 0.0063 0.0063 (   740 PWs)   bands (ev):

    -1.2851   1.3077   5.8696   5.8733  10.3804  13.1786  22.5510  22.5515
    23.2585  28.6303

          k =-1.0000 0.0125 0.0125 (   740 PWs)   bands (ev):

    -1.2846   1.3089   5.8597   5.8744  10.3883  13.1857  22.5457  22.5478
    23.2538  28.6077

          k =-1.0000 0.0188 0.0188 (   740 PWs)   bands (ev):

    -1.2839   1.3108   5.8434   5.8763  10.4012  13.1974  22.5370  22.5416
    23.2458  28.5710

          k =-1.0000 0.0250 0.0250 (   740 PWs)   bands (ev):

    -1.2828   1.3135   5.8208   5.8789  10.4190  13.2139  22.5248  22.5330
    23.2346  28.5214

          k =-1.0000 0.0313 0.0313 (   740 PWs)   bands (ev):

    -1.2815   1.3170   5.7921   5.8822  10.4414  13.2352  22.5092  22.5219
    23.2204  28.4605

          k =-1.0000 0.0375 0.0375 (   740 PWs)   bands (ev):

    -1.2799   1.3212   5.7577   5.8864  10.4682  13.2613  22.4903  22.5085
    23.2031  28.3899

          k =-1.0000 0.0438 0.0438 (   740 PWs)   bands (ev):

    -1.2781   1.3262   5.7178   5.8912  10.4989  13.2921  22.4680  22.4927
    23.1827  28.3110

          k =-1.0000 0.0500 0.0500 (   740 PWs)   bands (ev):

    -1.2760   1.3320   5.6729   5.8968  10.5333  13.3278  22.4425  22.4746
    23.1594  28.2251

          k =-1.0000 0.0563 0.0563 (   736 PWs)   bands (ev):

    -1.2736   1.3384   5.6234   5.9032  10.5708  13.3684  22.4138  22.4542
    23.1331  28.1333

          k =-1.0000 0.0625 0.0625 (   736 PWs)   bands (ev):

    -1.2710   1.3456   5.5695   5.9102  10.6111  13.4138  22.3820  22.4317
    23.1041  28.0367

          k =-1.0000 0.0688 0.0688 (   736 PWs)   bands (ev):

    -1.2683   1.3536   5.5118   5.9180  10.6538  13.4641  22.3472  22.4069
    23.0723  27.9359

          k =-1.0000 0.0750 0.0750 (   742 PWs)   bands (ev):

    -1.2653   1.3622   5.4506   5.9266  10.6985  13.5193  22.3095  22.3800
    23.0378  27.8318

          k =-1.0000 0.0813 0.0813 (   742 PWs)   bands (ev):

    -1.2622   1.3716   5.3864   5.9359  10.7448  13.5794  22.2689  22.3511
    23.0009  27.7249

          k =-1.0000 0.0875 0.0875 (   742 PWs)   bands (ev):

    -1.2590   1.3817   5.3195   5.9459  10.7924  13.6442  22.2256  22.3203
    22.9614  27.6156

          k =-1.0000 0.0938 0.0938 (   742 PWs)   bands (ev):

    -1.2557   1.3924   5.2502   5.9566  10.8410  13.7139  22.1797  22.2875
    22.9197  27.5044

          k =-1.0000 0.1000 0.1000 (   742 PWs)   bands (ev):

    -1.2523   1.4038   5.1791   5.9681  10.8903  13.7883  22.1313  22.2528
    22.8757  27.3916

          k =-1.0000 0.1063 0.1063 (   744 PWs)   bands (ev):

    -1.2489   1.4158   5.1063   5.9803  10.9401  13.8673  22.0805  22.2164
    22.8297  27.2775

          k =-1.0000 0.1125 0.1125 (   744 PWs)   bands (ev):

    -1.2455   1.4284   5.0323   5.9932  10.9902  13.9508  22.0274  22.1783
    22.7816  27.1623

          k =-1.0000 0.1188 0.1188 (   736 PWs)   bands (ev):

    -1.2421   1.4417   4.9574   6.0068  11.0404  14.0387  21.9721  22.1386
    22.7318  27.0463

          k =-1.0000 0.1250 0.1250 (   736 PWs)   bands (ev):

    -1.2388   1.4555   4.8818   6.0211  11.0905  14.1308  21.9147  22.0973
    22.6803  26.9296

          k =-1.0000 0.1313 0.1313 (   736 PWs)   bands (ev):

    -1.2357   1.4699   4.8059   6.0361  11.1406  14.2270  21.8554  22.0545
    22.6273  26.8124

          k =-1.0000 0.1375 0.1375 (   738 PWs)   bands (ev):

    -1.2328   1.4848   4.7299   6.0519  11.1904  14.3271  21.7942  22.0102
    22.5728  26.6948

          k =-1.0000 0.1438 0.1438 (   738 PWs)   bands (ev):

    -1.2302   1.5002   4.6541   6.0683  11.2400  14.4309  21.7313  21.9646
    22.5172  26.5770

          k =-1.0000 0.1500 0.1500 (   738 PWs)   bands (ev):

    -1.2278   1.5160   4.5787   6.0854  11.2893  14.5382  21.6668  21.9176
    22.4604  26.4591

          k =-1.0000 0.1563 0.1563 (   738 PWs)   bands (ev):

    -1.2258   1.5323   4.5041   6.1032  11.3384  14.6488  21.6007  21.8694
    22.4028  26.3412

          k =-1.0000 0.1625 0.1625 (   738 PWs)   bands (ev):

    -1.2243   1.5490   4.4305   6.1216  11.3872  14.7624  21.5332  21.8200
    22.3444  26.2233

          k =-1.0000 0.1688 0.1688 (   738 PWs)   bands (ev):

    -1.2233   1.5660   4.3580   6.1407  11.4357  14.8788  21.4645  21.7694
    22.2855  26.1056

          k =-1.0000 0.1750 0.1750 (   740 PWs)   bands (ev):

    -1.2229   1.5834   4.2870   6.1605  11.4840  14.9978  21.3945  21.7177
    22.2262  25.9881

          k =-1.0000 0.1813 0.1813 (   740 PWs)   bands (ev):

    -1.2231   1.6010   4.2176   6.1810  11.5321  15.1192  21.3234  21.6649
    22.1668  25.8709

          k =-1.0000 0.1875 0.1875 (   740 PWs)   bands (ev):

    -1.2241   1.6188   4.1502   6.2021  11.5801  15.2426  21.2512  21.6111
    22.1074  25.7540

          k =-1.0000 0.1938 0.1938 (   736 PWs)   bands (ev):

    -1.2259   1.6368   4.0849   6.2239  11.6279  15.3679  21.1782  21.5562
    22.0483  25.6375

          k =-1.0000 0.2000 0.2000 (   736 PWs)   bands (ev):

    -1.2286   1.6549   4.0219   6.2462  11.6757  15.4946  21.1043  21.5004
    21.9897  25.5215

          k =-1.0000 0.2063 0.2063 (   736 PWs)   bands (ev):

    -1.2324   1.6731   3.9615   6.2693  11.7235  15.6227  21.0297  21.4435
    21.9319  25.4060

          k =-1.0000 0.2125 0.2125 (   736 PWs)   bands (ev):

    -1.2372   1.6913   3.9039   6.2929  11.7713  15.7518  20.9544  21.3857
    21.8751  25.2911

          k =-1.0000 0.2188 0.2188 (   734 PWs)   bands (ev):

    -1.2433   1.7095   3.8493   6.3171  11.8192  15.8815  20.8786  21.3269
    21.8196  25.1767

          k =-1.0000 0.2250 0.2250 (   738 PWs)   bands (ev):

    -1.2507   1.7276   3.7978   6.3420  11.8672  16.0116  20.8022  21.2671
    21.7656  25.0630

          k =-1.0000 0.2313 0.2313 (   740 PWs)   bands (ev):

    -1.2594   1.7456   3.7498   6.3674  11.9153  16.1417  20.7254  21.2064
    21.7136  24.9499

          k =-1.0000 0.2375 0.2375 (   740 PWs)   bands (ev):

    -1.2697   1.7634   3.7053   6.3934  11.9637  16.2715  20.6483  21.1448
    21.6638  24.8375

          k =-1.0000 0.2438 0.2438 (   740 PWs)   bands (ev):

    -1.2815   1.7811   3.6645   6.4200  12.0123  16.4006  20.5709  21.0823
    21.6166  24.7259

          k =-1.0000 0.2500 0.2500 (   740 PWs)   bands (ev):

    -1.2950   1.7986   3.6277   6.4471  12.0612  16.5286  20.4933  21.0189
    21.5723  24.6150

     Writing all to output data dir ./out/sic.save/
 
     init_run     :      0.31s CPU      0.34s WALL (       1 calls)
     electrons    :      9.75s CPU     10.16s WALL (       1 calls)

     Called by init_run:
     wfcinit      :      0.00s CPU      0.00s WALL (       1 calls)
     wfcinit:atom :      0.01s CPU      0.01s WALL (     221 calls)
     wfcinit:wfcr :      0.38s CPU      0.42s WALL (     221 calls)
     potinit      :      0.05s CPU      0.05s WALL (       1 calls)
     hinit0       :      0.20s CPU      0.22s WALL (       1 calls)

     Called by electrons:
     c_bands      :      9.75s CPU     10.16s WALL (       1 calls)
     v_of_rho     :      0.01s CPU      0.01s WALL (       1 calls)
     v_h          :      0.00s CPU      0.00s WALL (       1 calls)
     v_xc         :      0.01s CPU      0.01s WALL (       1 calls)
     newd         :      0.02s CPU      0.03s WALL (       1 calls)
     PAW_pot      :      0.03s CPU      0.03s WALL (       1 calls)

     Called by c_bands:
     init_us_2    :      0.01s CPU      0.02s WALL (     221 calls)
     init_us_2:cp :      0.01s CPU      0.02s WALL (     221 calls)
     cegterg      :      9.27s CPU      9.54s WALL (     449 calls)

     Called by sum_band:

     Called by *egterg:
     cdiaghg      :      0.67s CPU      0.69s WALL (    7329 calls)
     cegterg:over :      0.60s CPU      0.62s WALL (    7108 calls)
     cegterg:upda :      0.12s CPU      0.12s WALL (    7108 calls)
     cegterg:last :      0.24s CPU      0.25s WALL (    4630 calls)
     h_psi        :      7.64s CPU      7.89s WALL (    7778 calls)
     s_psi        :      0.14s CPU      0.15s WALL (    7778 calls)
     g_psi        :      0.03s CPU      0.03s WALL (    7108 calls)

     Called by h_psi:
     h_psi:calbec :      0.23s CPU      0.24s WALL (    7778 calls)
     vloc_psi     :      7.22s CPU      7.46s WALL (    7778 calls)
     add_vuspsi   :      0.15s CPU      0.16s WALL (    7778 calls)

     General routines
     calbec       :      0.22s CPU      0.23s WALL (    7778 calls)
     fft          :      0.01s CPU      0.02s WALL (      13 calls)
     ffts         :      0.00s CPU      0.00s WALL (       1 calls)
     fftw         :      6.84s CPU      7.07s WALL (   95686 calls)
     interpolate  :      0.00s CPU      0.00s WALL (       1 calls)
     davcio       :      0.02s CPU      0.10s WALL (     442 calls)
 
     Parallel routines

     PAW routines
     PAW_pot      :      0.03s CPU      0.03s WALL (       1 calls)
 
     PWSCF        :     10.33s CPU     11.24s WALL

 
   This run was terminated on:  15:58:22  22Mar2023            

=------------------------------------------------------------------------------=
   JOB DONE.
=------------------------------------------------------------------------------=
