
     Program PWSCF v.7.1 starts on 22Mar2023 at 15:58: 6 

     This program is part of the open-source Quantum ESPRESSO suite
     for quantum simulation of materials; please cite
         "P. Giannozzi et al., J. Phys.:Condens. Matter 21 395502 (2009);
         "P. Giannozzi et al., J. Phys.:Condens. Matter 29 465901 (2017);
         "P. Giannozzi et al., J. Chem. Phys. 152 154105 (2020);
          URL http://www.quantum-espresso.org", 
     in publications or presentations arising from this work. More details at
     http://www.quantum-espresso.org/quote

     Parallel version (MPI), running on     2 processors

     MPI processes distributed on     1 nodes
     182470 MiB available memory on the printing compute node when the environment starts
 
     Waiting for input...
     Reading input from standard input

     Current dimensions of program PWSCF are:
     Max number of different atomic species (ntypx) = 10
     Max number of k-points (npk) =  40000
     Max angular momentum in pseudopotentials (lmaxx) =  4
     file C.pbe-n-kjpaw_psl.1.0.0.UPF: wavefunction(s)  2S 2P renormalized
 
     R & G space division:  proc/nbgrp/npool/nimage =       2
     Subspace diagonalization in iterative solution of the eigenvalue problem:
     a serial algorithm will be used

 
     Parallelization info
     --------------------
     sticks:   dense  smooth     PW     G-vecs:    dense   smooth      PW
     Min         428     216     75                 8312     2980     569
     Max         431     217     76                 8313     2981     570
     Sum         859     433    151                16625     5961    1139
 
     Using Slab Decomposition
 


     bravais-lattice index     =            2
     lattice parameter (alat)  =       8.3431  a.u.
     unit-cell volume          =     145.1873 (a.u.)^3
     number of atoms/cell      =            2
     number of atomic types    =            2
     number of electrons       =         8.00
     number of Kohn-Sham states=            8
     kinetic-energy cutoff     =      45.0000  Ry
     charge density cutoff     =     360.0000  Ry
     scf convergence threshold =      1.0E-08
     mixing beta               =       0.2500
     number of iterations used =            8  plain     mixing
     Exchange-correlation= SLA  PW   PBX  PBC
                           (   1   4   3   4   0   0   0)

     celldm(1)=   8.343141  celldm(2)=   0.000000  celldm(3)=   0.000000
     celldm(4)=   0.000000  celldm(5)=   0.000000  celldm(6)=   0.000000

     crystal axes: (cart. coord. in units of alat)
               a(1) = (  -0.500000   0.000000   0.500000 )  
               a(2) = (   0.000000   0.500000   0.500000 )  
               a(3) = (  -0.500000   0.500000   0.000000 )  

     reciprocal axes: (cart. coord. in units 2 pi/alat)
               b(1) = ( -1.000000 -1.000000  1.000000 )  
               b(2) = (  1.000000  1.000000  1.000000 )  
               b(3) = ( -1.000000  1.000000 -1.000000 )  


     PseudoPot. # 1 for Si read from file:
     ./pseudo/Si.pbe-n-rrkjus_psl.1.0.0.UPF
     MD5 check sum: 0b0bb1205258b0d07b9f9672cf965d36
     Pseudo is Ultrasoft + core correction, Zval =  4.0
     Generated using "atomic" code by A. Dal Corso  v.5.1
     Using radial grid of 1141 points,  6 beta functions with: 
                l(1) =   0
                l(2) =   0
                l(3) =   1
                l(4) =   1
                l(5) =   2
                l(6) =   2
     Q(r) pseudized with 0 coefficients 


     PseudoPot. # 2 for C  read from file:
     ./pseudo/C.pbe-n-kjpaw_psl.1.0.0.UPF
     MD5 check sum: 5d2aebdfa2cae82b50a7e79e9516da0f
     Pseudo is Projector augmented-wave + core cor, Zval =  4.0
     Generated using "atomic" code by A. Dal Corso  v.5.1
     Shape of augmentation charge: PSQ
     Using radial grid of 1073 points,  4 beta functions with: 
                l(1) =   0
                l(2) =   0
                l(3) =   1
                l(4) =   1
     Q(r) pseudized with 0 coefficients 


     atomic species   valence    mass     pseudopotential
        Si             4.00    28.08550     Si( 1.00)
        C              4.00    12.00000     C ( 1.00)

     24 Sym. Ops. (no inversion) found


                                    s                        frac. trans.

      isym =  1     identity                                     

 cryst.   s( 1) = (     1          0          0      )
                  (     0          1          0      )
                  (     0          0          1      )

 cart.    s( 1) = (  1.0000000  0.0000000  0.0000000 )
                  (  0.0000000  1.0000000  0.0000000 )
                  (  0.0000000  0.0000000  1.0000000 )


      isym =  2     180 deg rotation - cart. axis [0,0,1]        

 cryst.   s( 2) = (     0          1         -1      )
                  (     1          0         -1      )
                  (     0          0         -1      )

 cart.    s( 2) = ( -1.0000000  0.0000000  0.0000000 )
                  (  0.0000000 -1.0000000  0.0000000 )
                  (  0.0000000  0.0000000  1.0000000 )


      isym =  3     180 deg rotation - cart. axis [0,1,0]        

 cryst.   s( 3) = (    -1          0          0      )
                  (    -1          0          1      )
                  (    -1          1          0      )

 cart.    s( 3) = ( -1.0000000  0.0000000  0.0000000 )
                  (  0.0000000  1.0000000  0.0000000 )
                  (  0.0000000  0.0000000 -1.0000000 )


      isym =  4     180 deg rotation - cart. axis [1,0,0]        

 cryst.   s( 4) = (     0         -1          1      )
                  (     0         -1          0      )
                  (     1         -1          0      )

 cart.    s( 4) = (  1.0000000  0.0000000  0.0000000 )
                  (  0.0000000 -1.0000000  0.0000000 )
                  (  0.0000000  0.0000000 -1.0000000 )


      isym =  5     120 deg rotation - cart. axis [-1,-1,-1]     

 cryst.   s( 5) = (    -1          0          1      )
                  (    -1          1          0      )
                  (    -1          0          0      )

 cart.    s( 5) = (  0.0000000  1.0000000  0.0000000 )
                  (  0.0000000  0.0000000  1.0000000 )
                  (  1.0000000  0.0000000  0.0000000 )


      isym =  6     120 deg rotation - cart. axis [-1,1,1]       

 cryst.   s( 6) = (     0          1          0      )
                  (     0          0          1      )
                  (     1          0          0      )

 cart.    s( 6) = (  0.0000000 -1.0000000  0.0000000 )
                  (  0.0000000  0.0000000  1.0000000 )
                  ( -1.0000000  0.0000000  0.0000000 )


      isym =  7     120 deg rotation - cart. axis [1,1,-1]       

 cryst.   s( 7) = (     1          0         -1      )
                  (     0          0         -1      )
                  (     0          1         -1      )

 cart.    s( 7) = (  0.0000000  1.0000000  0.0000000 )
                  (  0.0000000  0.0000000 -1.0000000 )
                  ( -1.0000000  0.0000000  0.0000000 )


      isym =  8     120 deg rotation - cart. axis [1,-1,1]       

 cryst.   s( 8) = (     0         -1          0      )
                  (     1         -1          0      )
                  (     0         -1          1      )

 cart.    s( 8) = (  0.0000000 -1.0000000  0.0000000 )
                  (  0.0000000  0.0000000 -1.0000000 )
                  (  1.0000000  0.0000000  0.0000000 )


      isym =  9     120 deg rotation - cart. axis [1,1,1]        

 cryst.   s( 9) = (     0          0         -1      )
                  (     0          1         -1      )
                  (     1          0         -1      )

 cart.    s( 9) = (  0.0000000  0.0000000  1.0000000 )
                  (  1.0000000  0.0000000  0.0000000 )
                  (  0.0000000  1.0000000  0.0000000 )


      isym = 10     120 deg rotation - cart. axis [-1,1,-1]      

 cryst.   s(10) = (    -1          1          0      )
                  (    -1          0          0      )
                  (    -1          0          1      )

 cart.    s(10) = (  0.0000000  0.0000000  1.0000000 )
                  ( -1.0000000  0.0000000  0.0000000 )
                  (  0.0000000 -1.0000000  0.0000000 )


      isym = 11     120 deg rotation - cart. axis [1,-1,-1]      

 cryst.   s(11) = (     0          0          1      )
                  (     1          0          0      )
                  (     0          1          0      )

 cart.    s(11) = (  0.0000000  0.0000000 -1.0000000 )
                  ( -1.0000000  0.0000000  0.0000000 )
                  (  0.0000000  1.0000000  0.0000000 )


      isym = 12     120 deg rotation - cart. axis [-1,-1,1]      

 cryst.   s(12) = (     1         -1          0      )
                  (     0         -1          1      )
                  (     0         -1          0      )

 cart.    s(12) = (  0.0000000  0.0000000 -1.0000000 )
                  (  1.0000000  0.0000000  0.0000000 )
                  (  0.0000000 -1.0000000  0.0000000 )


      isym = 13     inv. 180 deg rotation - cart. axis [1,1,0]   

 cryst.   s(13) = (     0          1          0      )
                  (     1          0          0      )
                  (     0          0          1      )

 cart.    s(13) = (  0.0000000 -1.0000000  0.0000000 )
                  ( -1.0000000  0.0000000  0.0000000 )
                  (  0.0000000  0.0000000  1.0000000 )


      isym = 14     inv. 180 deg rotation - cart. axis [1,-1,0]  

 cryst.   s(14) = (     1          0         -1      )
                  (     0          1         -1      )
                  (     0          0         -1      )

 cart.    s(14) = (  0.0000000  1.0000000  0.0000000 )
                  (  1.0000000  0.0000000  0.0000000 )
                  (  0.0000000  0.0000000  1.0000000 )


      isym = 15     inv.  90 deg rotation - cart. axis [0,0,-1]  

 cryst.   s(15) = (     0         -1          0      )
                  (     0         -1          1      )
                  (     1         -1          0      )

 cart.    s(15) = (  0.0000000 -1.0000000  0.0000000 )
                  (  1.0000000  0.0000000  0.0000000 )
                  (  0.0000000  0.0000000 -1.0000000 )


      isym = 16     inv.  90 deg rotation - cart. axis [0,0,1]   

 cryst.   s(16) = (    -1          0          1      )
                  (    -1          0          0      )
                  (    -1          1          0      )

 cart.    s(16) = (  0.0000000  1.0000000  0.0000000 )
                  ( -1.0000000  0.0000000  0.0000000 )
                  (  0.0000000  0.0000000 -1.0000000 )


      isym = 17     inv. 180 deg rotation - cart. axis [1,0,1]   

 cryst.   s(17) = (     1          0          0      )
                  (     0          0          1      )
                  (     0          1          0      )

 cart.    s(17) = (  0.0000000  0.0000000 -1.0000000 )
                  (  0.0000000  1.0000000  0.0000000 )
                  ( -1.0000000  0.0000000  0.0000000 )


      isym = 18     inv. 180 deg rotation - cart. axis [-1,0,1]  

 cryst.   s(18) = (    -1          0          0      )
                  (    -1          1          0      )
                  (    -1          0          1      )

 cart.    s(18) = (  0.0000000  0.0000000  1.0000000 )
                  (  0.0000000  1.0000000  0.0000000 )
                  (  1.0000000  0.0000000  0.0000000 )


      isym = 19     inv.  90 deg rotation - cart. axis [0,1,0]   

 cryst.   s(19) = (     0         -1          1      )
                  (     1         -1          0      )
                  (     0         -1          0      )

 cart.    s(19) = (  0.0000000  0.0000000 -1.0000000 )
                  (  0.0000000 -1.0000000  0.0000000 )
                  (  1.0000000  0.0000000  0.0000000 )


      isym = 20     inv.  90 deg rotation - cart. axis [0,-1,0]  

 cryst.   s(20) = (     0          1         -1      )
                  (     0          0         -1      )
                  (     1          0         -1      )

 cart.    s(20) = (  0.0000000  0.0000000  1.0000000 )
                  (  0.0000000 -1.0000000  0.0000000 )
                  ( -1.0000000  0.0000000  0.0000000 )


      isym = 21     inv. 180 deg rotation - cart. axis [0,1,1]   

 cryst.   s(21) = (     1         -1          0      )
                  (     0         -1          0      )
                  (     0         -1          1      )

 cart.    s(21) = (  1.0000000  0.0000000  0.0000000 )
                  (  0.0000000  0.0000000 -1.0000000 )
                  (  0.0000000 -1.0000000  0.0000000 )


      isym = 22     inv. 180 deg rotation - cart. axis [0,1,-1]  

 cryst.   s(22) = (     0          0          1      )
                  (     0          1          0      )
                  (     1          0          0      )

 cart.    s(22) = (  1.0000000  0.0000000  0.0000000 )
                  (  0.0000000  0.0000000  1.0000000 )
                  (  0.0000000  1.0000000  0.0000000 )


      isym = 23     inv.  90 deg rotation - cart. axis [-1,0,0]  

 cryst.   s(23) = (     0          0         -1      )
                  (     1          0         -1      )
                  (     0          1         -1      )

 cart.    s(23) = ( -1.0000000  0.0000000  0.0000000 )
                  (  0.0000000  0.0000000 -1.0000000 )
                  (  0.0000000  1.0000000  0.0000000 )


      isym = 24     inv.  90 deg rotation - cart. axis [1,0,0]   

 cryst.   s(24) = (    -1          1          0      )
                  (    -1          0          1      )
                  (    -1          0          0      )

 cart.    s(24) = ( -1.0000000  0.0000000  0.0000000 )
                  (  0.0000000  0.0000000  1.0000000 )
                  (  0.0000000 -1.0000000  0.0000000 )


     point group T_d (-43m) 
     there are  5 classes
     the character table:

       E     8C3   3C2   6S4   6s_d 
A_1    1.00  1.00  1.00  1.00  1.00
A_2    1.00  1.00  1.00 -1.00 -1.00
E      2.00 -1.00  2.00  0.00  0.00
T_1    3.00  0.00 -1.00  1.00 -1.00
T_2    3.00  0.00 -1.00 -1.00  1.00

     the symmetry operations in each class and the name of the first element:

     E        1
          identity                                               
     8C3      5    7    8    6   12    9   10   11
          120 deg rotation - cart. axis [-1,-1,-1]               
     3C2      2    3    4
          180 deg rotation - cart. axis [0,0,1]                  
     6S4     15   16   20   19   23   24
          inv.  90 deg rotation - cart. axis [0,0,-1]            
     6s_d    13   14   17   18   21   22
          inv. 180 deg rotation - cart. axis [1,1,0]             

   Cartesian axes

     site n.     atom                  positions (alat units)
         1           Si  tau(   1) = (   0.0000000   0.0000000   0.0000000  )
         2           C   tau(   2) = (   0.2500000   0.2500000   0.2500000  )

   Crystallographic axes

     site n.     atom                  positions (cryst. coord.)
         1           Si  tau(   1) = (  0.0000000  0.0000000  0.0000000  )
         2           C   tau(   2) = ( -0.2500000  0.7500000 -0.2500000  )

     number of k points=    28  Gaussian smearing, width (Ry)=  0.0010
                       cart. coord. in units 2pi/alat
        k(    1) = (  -0.0833333   0.0833333   0.0833333), wk =   0.0185185
        k(    2) = (  -0.2500000   0.2500000  -0.0833333), wk =   0.0555556
        k(    3) = (  -0.4166667   0.4166667  -0.2500000), wk =   0.0555556
        k(    4) = (   0.4166667  -0.4166667   0.5833333), wk =   0.0555556
        k(    5) = (   0.2500000  -0.2500000   0.4166667), wk =   0.0555556
        k(    6) = (   0.0833333  -0.0833333   0.2500000), wk =   0.0555556
        k(    7) = (  -0.0833333   0.4166667   0.0833333), wk =   0.0555556
        k(    8) = (  -0.2500000   0.5833333  -0.0833333), wk =   0.1111111
        k(    9) = (   0.5833333  -0.2500000   0.7500000), wk =   0.1111111
        k(   10) = (   0.4166667  -0.0833333   0.5833333), wk =   0.1111111
        k(   11) = (   0.2500000   0.0833333   0.4166667), wk =   0.1111111
        k(   12) = (  -0.0833333   0.7500000   0.0833333), wk =   0.0555556
        k(   13) = (   0.7500000  -0.0833333   0.9166667), wk =   0.1111111
        k(   14) = (   0.5833333   0.0833333   0.7500000), wk =   0.1111111
        k(   15) = (   0.4166667   0.2500000   0.5833333), wk =   0.1111111
        k(   16) = (  -0.0833333  -0.9166667   0.0833333), wk =   0.0555556
        k(   17) = (  -0.2500000  -0.7500000  -0.0833333), wk =   0.1111111
        k(   18) = (  -0.0833333  -0.5833333   0.0833333), wk =   0.0555556
        k(   19) = (  -0.2500000   0.2500000   0.2500000), wk =   0.0185185
        k(   20) = (  -0.4166667   0.4166667   0.0833333), wk =   0.0555556
        k(   21) = (   0.4166667  -0.4166667   0.9166667), wk =   0.0555556
        k(   22) = (   0.2500000  -0.2500000   0.7500000), wk =   0.0555556
        k(   23) = (  -0.2500000   0.5833333   0.2500000), wk =   0.0555556
        k(   24) = (   0.5833333  -0.2500000   1.0833333), wk =   0.1111111
        k(   25) = (   0.4166667  -0.0833333   0.9166667), wk =   0.1111111
        k(   26) = (  -0.2500000  -1.0833333   0.2500000), wk =   0.0555556
        k(   27) = (  -0.4166667   0.4166667   0.4166667), wk =   0.0185185
        k(   28) = (   0.4166667  -0.4166667   1.2500000), wk =   0.0555556

                       cryst. coord.
        k(    1) = (   0.0833333   0.0833333   0.0833333), wk =   0.0185185
        k(    2) = (   0.0833333   0.0833333   0.2500000), wk =   0.0555556
        k(    3) = (   0.0833333   0.0833333   0.4166667), wk =   0.0555556
        k(    4) = (   0.0833333   0.0833333  -0.4166667), wk =   0.0555556
        k(    5) = (   0.0833333   0.0833333  -0.2500000), wk =   0.0555556
        k(    6) = (   0.0833333   0.0833333  -0.0833333), wk =   0.0555556
        k(    7) = (   0.0833333   0.2500000   0.2500000), wk =   0.0555556
        k(    8) = (   0.0833333   0.2500000   0.4166667), wk =   0.1111111
        k(    9) = (   0.0833333   0.2500000  -0.4166667), wk =   0.1111111
        k(   10) = (   0.0833333   0.2500000  -0.2500000), wk =   0.1111111
        k(   11) = (   0.0833333   0.2500000  -0.0833333), wk =   0.1111111
        k(   12) = (   0.0833333   0.4166667   0.4166667), wk =   0.0555556
        k(   13) = (   0.0833333   0.4166667  -0.4166667), wk =   0.1111111
        k(   14) = (   0.0833333   0.4166667  -0.2500000), wk =   0.1111111
        k(   15) = (   0.0833333   0.4166667  -0.0833333), wk =   0.1111111
        k(   16) = (   0.0833333  -0.4166667  -0.4166667), wk =   0.0555556
        k(   17) = (   0.0833333  -0.4166667  -0.2500000), wk =   0.1111111
        k(   18) = (   0.0833333  -0.2500000  -0.2500000), wk =   0.0555556
        k(   19) = (   0.2500000   0.2500000   0.2500000), wk =   0.0185185
        k(   20) = (   0.2500000   0.2500000   0.4166667), wk =   0.0555556
        k(   21) = (   0.2500000   0.2500000  -0.4166667), wk =   0.0555556
        k(   22) = (   0.2500000   0.2500000  -0.2500000), wk =   0.0555556
        k(   23) = (   0.2500000   0.4166667   0.4166667), wk =   0.0555556
        k(   24) = (   0.2500000   0.4166667  -0.4166667), wk =   0.1111111
        k(   25) = (   0.2500000   0.4166667  -0.2500000), wk =   0.1111111
        k(   26) = (   0.2500000  -0.4166667  -0.4166667), wk =   0.0555556
        k(   27) = (   0.4166667   0.4166667   0.4166667), wk =   0.0185185
        k(   28) = (   0.4166667   0.4166667  -0.4166667), wk =   0.0555556

     Dense  grid:    16625 G-vectors     FFT dimensions: (  36,  36,  36)

     Smooth grid:     5961 G-vectors     FFT dimensions: (  25,  25,  25)

     Dynamical RAM for                 wfc:       0.05 MB

     Dynamical RAM for     wfc (w. buffer):       1.31 MB

     Dynamical RAM for           str. fact:       0.25 MB

     Dynamical RAM for           local pot:       0.00 MB

     Dynamical RAM for          nlocal pot:       0.15 MB

     Dynamical RAM for                qrad:       3.05 MB

     Dynamical RAM for          rho,v,vnew:       0.91 MB

     Dynamical RAM for               rhoin:       0.30 MB

     Dynamical RAM for            rho*nmix:       2.03 MB

     Dynamical RAM for           G-vectors:       0.50 MB

     Dynamical RAM for          h,s,v(r/c):       0.01 MB

     Dynamical RAM for          <psi|beta>:       0.00 MB

     Dynamical RAM for                 psi:       0.09 MB

     Dynamical RAM for                hpsi:       0.09 MB

     Dynamical RAM for                spsi:       0.09 MB

     Dynamical RAM for      wfcinit/wfcrot:       0.09 MB

     Dynamical RAM for           addusdens:      23.72 MB

     Estimated static dynamical RAM per process >       7.74 MB

     Estimated max dynamical RAM per process >      33.49 MB

     Estimated total dynamical RAM >      66.99 MB

     Check: negative core charge=   -0.000004

     Initial potential from superposition of free atoms

     starting charge       7.9994, renormalised to       8.0000
     Starting wfcs are    8 randomized atomic wfcs
     Checking if some PAW data can be deallocated... 
       PAW data deallocated on    1 nodes for type:  2

     total cpu time spent up to now is        0.6 secs

     Self-consistent Calculation

     iteration #  1     ecut=    45.00 Ry     beta= 0.25
     Davidson diagonalization with overlap

---- Real-time Memory Report at c_bands before calling an iterative solver
           241 MiB given to the printing process from OS
             0 MiB allocation reported by mallinfo(arena+hblkhd)
        182404 MiB available memory on the node where the printing process lives
------------------
     ethr =  1.00E-02,  avg # of iterations =  3.4

     total cpu time spent up to now is        0.9 secs

     total energy              =     -29.88084262 Ry
     estimated scf accuracy    <       0.42559398 Ry

     iteration #  2     ecut=    45.00 Ry     beta= 0.25
     Davidson diagonalization with overlap

---- Real-time Memory Report at c_bands before calling an iterative solver
           247 MiB given to the printing process from OS
             0 MiB allocation reported by mallinfo(arena+hblkhd)
        182384 MiB available memory on the node where the printing process lives
------------------
     ethr =  5.32E-03,  avg # of iterations =  1.0

     total cpu time spent up to now is        1.1 secs

     total energy              =     -29.88083334 Ry
     estimated scf accuracy    <       0.07663242 Ry

     iteration #  3     ecut=    45.00 Ry     beta= 0.25
     Davidson diagonalization with overlap

---- Real-time Memory Report at c_bands before calling an iterative solver
           247 MiB given to the printing process from OS
             0 MiB allocation reported by mallinfo(arena+hblkhd)
        182336 MiB available memory on the node where the printing process lives
------------------
     ethr =  9.58E-04,  avg # of iterations =  2.0

     total cpu time spent up to now is        1.4 secs

     total energy              =     -29.89236383 Ry
     estimated scf accuracy    <       0.00703555 Ry

     iteration #  4     ecut=    45.00 Ry     beta= 0.25
     Davidson diagonalization with overlap

---- Real-time Memory Report at c_bands before calling an iterative solver
           247 MiB given to the printing process from OS
             0 MiB allocation reported by mallinfo(arena+hblkhd)
        182329 MiB available memory on the node where the printing process lives
------------------
     ethr =  8.79E-05,  avg # of iterations =  2.2

     total cpu time spent up to now is        1.7 secs

     total energy              =     -29.89256813 Ry
     estimated scf accuracy    <       0.00010339 Ry

     iteration #  5     ecut=    45.00 Ry     beta= 0.25
     Davidson diagonalization with overlap

---- Real-time Memory Report at c_bands before calling an iterative solver
           247 MiB given to the printing process from OS
             0 MiB allocation reported by mallinfo(arena+hblkhd)
        182237 MiB available memory on the node where the printing process lives
------------------
     ethr =  1.29E-06,  avg # of iterations =  5.2

     total cpu time spent up to now is        1.9 secs

     total energy              =     -29.89258015 Ry
     estimated scf accuracy    <       0.00001562 Ry

     iteration #  6     ecut=    45.00 Ry     beta= 0.25
     Davidson diagonalization with overlap

---- Real-time Memory Report at c_bands before calling an iterative solver
           247 MiB given to the printing process from OS
             0 MiB allocation reported by mallinfo(arena+hblkhd)
        182340 MiB available memory on the node where the printing process lives
------------------
     ethr =  1.95E-07,  avg # of iterations =  2.0

     total cpu time spent up to now is        2.1 secs

     total energy              =     -29.89257978 Ry
     estimated scf accuracy    <       0.00000873 Ry

     iteration #  7     ecut=    45.00 Ry     beta= 0.25
     Davidson diagonalization with overlap

---- Real-time Memory Report at c_bands before calling an iterative solver
           247 MiB given to the printing process from OS
             0 MiB allocation reported by mallinfo(arena+hblkhd)
        182330 MiB available memory on the node where the printing process lives
------------------
     ethr =  1.09E-07,  avg # of iterations =  1.0

     total cpu time spent up to now is        2.3 secs

     total energy              =     -29.89258076 Ry
     estimated scf accuracy    <       0.00000021 Ry

     iteration #  8     ecut=    45.00 Ry     beta= 0.25
     Davidson diagonalization with overlap

---- Real-time Memory Report at c_bands before calling an iterative solver
           247 MiB given to the printing process from OS
             0 MiB allocation reported by mallinfo(arena+hblkhd)
        182323 MiB available memory on the node where the printing process lives
------------------
     ethr =  2.61E-09,  avg # of iterations =  2.0

     total cpu time spent up to now is        2.5 secs

     total energy              =     -29.89258078 Ry
     estimated scf accuracy    <       0.00000006 Ry

     iteration #  9     ecut=    45.00 Ry     beta= 0.25
     Davidson diagonalization with overlap

---- Real-time Memory Report at c_bands before calling an iterative solver
           247 MiB given to the printing process from OS
             0 MiB allocation reported by mallinfo(arena+hblkhd)
        182315 MiB available memory on the node where the printing process lives
------------------
     ethr =  7.70E-10,  avg # of iterations =  1.0

     total cpu time spent up to now is        2.6 secs

     End of self-consistent calculation

          k =-0.0833 0.0833 0.0833 (   731 PWs)   bands (ev):

    -5.9887   8.2603   8.8919   8.8919  15.0410  16.1512  16.1993  16.1993

     occupation numbers 
     1.0000   1.0000   1.0000   1.0000   0.0000   0.0000   0.0000   0.0000

          k =-0.2500 0.2500-0.0833 (   748 PWs)   bands (ev):

    -5.2979   5.9932   7.7778   8.7697  15.2894  16.3892  16.4928  17.5645

     occupation numbers 
     1.0000   1.0000   1.0000   1.0000   0.0000   0.0000   0.0000   0.0000

          k =-0.4167 0.4167-0.2500 (   745 PWs)   bands (ev):

    -3.7082   2.4470   7.2912   8.1723  14.6486  16.1391  16.4379  18.9296

     occupation numbers 
     1.0000   1.0000   1.0000   1.0000   0.0000   0.0000   0.0000   0.0000

          k = 0.4167-0.4167 0.5833 (   743 PWs)   bands (ev):

    -2.6657   0.8512   7.4067   7.7426  14.3471  15.7145  16.4860  19.3054

     occupation numbers 
     1.0000   1.0000   1.0000   1.0000   0.0000   0.0000   0.0000   0.0000

          k = 0.2500-0.2500 0.4167 (   748 PWs)   bands (ev):

    -4.3107   3.5800   7.7899   7.9743  14.5639  16.1392  17.1543  18.2350

     occupation numbers 
     1.0000   1.0000   1.0000   1.0000   0.0000   0.0000   0.0000   0.0000

          k = 0.0833-0.0833 0.2500 (   739 PWs)   bands (ev):

    -5.6403   7.1724   8.3215   8.5559  15.1146  15.8170  17.0154  17.0959

     occupation numbers 
     1.0000   1.0000   1.0000   1.0000   0.0000   0.0000   0.0000   0.0000

          k =-0.0833 0.4167 0.0833 (   738 PWs)   bands (ev):

    -4.9545   5.9095   7.5299   7.6293  13.9260  15.9438  17.8982  18.2774

     occupation numbers 
     1.0000   1.0000   1.0000   1.0000   0.0000   0.0000   0.0000   0.0000

          k =-0.2500 0.5833-0.0833 (   741 PWs)   bands (ev):

    -3.6592   3.7391   6.0206   7.1243  13.5371  16.1155  17.6720  19.3220

     occupation numbers 
     1.0000   1.0000   1.0000   1.0000   0.0000   0.0000   0.0000   0.0000

          k = 0.5833-0.2500 0.7500 (   738 PWs)   bands (ev):

    -2.1048   1.4197   5.2958   6.8017  13.7454  16.4509  18.6821  19.5130

     occupation numbers 
     1.0000   1.0000   1.0000   1.0000   0.0000   0.0000   0.0000   0.0000

          k = 0.4167-0.0833 0.5833 (   740 PWs)   bands (ev):

    -3.0932   2.8198   5.1530   7.4469  14.5250  16.3264  18.0460  18.8278

     occupation numbers 
     1.0000   1.0000   1.0000   1.0000   0.0000   0.0000   0.0000   0.0000

          k = 0.2500 0.0833 0.4167 (   742 PWs)   bands (ev):

    -4.6261   4.8064   6.9035   8.2113  14.7994  16.3386  17.3447  17.7466

     occupation numbers 
     1.0000   1.0000   1.0000   1.0000   0.0000   0.0000   0.0000   0.0000

          k =-0.0833 0.7500 0.0833 (   740 PWs)   bands (ev):

    -2.7242   3.0384   5.8152   6.2564  11.4222  14.0701  20.8363  21.0830

     occupation numbers 
     1.0000   1.0000   1.0000   1.0000   0.0000   0.0000   0.0000   0.0000

          k = 0.7500-0.0833 0.9167 (   738 PWs)   bands (ev):

    -1.4003   1.8091   4.5412   5.6934  12.0190  15.1095  20.2599  21.9373

     occupation numbers 
     1.0000   1.0000   1.0000   1.0000   0.0000   0.0000   0.0000   0.0000

          k = 0.5833 0.0833 0.7500 (   734 PWs)   bands (ev):

    -1.6564   1.8692   3.9178   6.4500  13.3152  17.3773  19.0592  20.1394

     occupation numbers 
     1.0000   1.0000   1.0000   1.0000   0.0000   0.0000   0.0000   0.0000

          k = 0.4167 0.2500 0.5833 (   740 PWs)   bands (ev):

    -2.9019   1.6588   6.4987   7.5505  14.4749  15.7147  17.4411  19.2582

     occupation numbers 
     1.0000   1.0000   1.0000   1.0000   0.0000   0.0000   0.0000   0.0000

          k =-0.0833-0.9167 0.0833 (   740 PWs)   bands (ev):

    -1.5148   1.6531   5.4142   5.9747  10.8346  13.6523  22.0902  22.0973

     occupation numbers 
     1.0000   1.0000   1.0000   1.0000   0.0000   0.0000   0.0000   0.0000

          k =-0.2500-0.7500-0.0833 (   741 PWs)   bands (ev):

    -2.4844   2.7385   5.1597   6.1474  12.5325  15.4590  18.9375  20.9259

     occupation numbers 
     1.0000   1.0000   1.0000   1.0000   0.0000   0.0000   0.0000   0.0000

          k =-0.0833-0.5833 0.0833 (   734 PWs)   bands (ev):

    -3.9592   4.5456   6.6013   6.7955  12.5370  14.9118  19.2882  19.6951

     occupation numbers 
     1.0000   1.0000   1.0000   1.0000   0.0000   0.0000   0.0000   0.0000

          k =-0.2500 0.2500 0.2500 (   751 PWs)   bands (ev):

    -4.9632   4.7580   8.3848   8.3848  14.6312  16.6527  16.6527  17.9992

     occupation numbers 
     1.0000   1.0000   1.0000   1.0000   0.0000   0.0000   0.0000   0.0000

          k =-0.4167 0.4167 0.0833 (   744 PWs)   bands (ev):

    -3.9883   3.7063   5.9957   8.2514  15.1716  16.5112  17.0568  18.2246

     occupation numbers 
     1.0000   1.0000   1.0000   1.0000   0.0000   0.0000   0.0000   0.0000

          k = 0.4167-0.4167 0.9167 (   736 PWs)   bands (ev):

    -2.3550   2.1330   4.3790   7.3491  13.5877  17.6712  18.3268  19.4482

     occupation numbers 
     1.0000   1.0000   1.0000   1.0000   0.0000   0.0000   0.0000   0.0000

          k = 0.2500-0.2500 0.7500 (   739 PWs)   bands (ev):

    -2.3121   2.0428   5.1130   6.7266  12.6569  16.7198  19.0845  19.1973

     occupation numbers 
     1.0000   1.0000   1.0000   1.0000   0.0000   0.0000   0.0000   0.0000

          k =-0.2500 0.5833 0.2500 (   740 PWs)   bands (ev):

    -3.3866   2.6499   6.6943   7.1896  13.6522  16.6158  18.0351  18.1533

     occupation numbers 
     1.0000   1.0000   1.0000   1.0000   0.0000   0.0000   0.0000   0.0000

          k = 0.5833-0.2500 1.0833 (   737 PWs)   bands (ev):

    -2.0727   2.2299   4.4899   6.1457  13.9987  16.7275  17.8116  20.5330

     occupation numbers 
     1.0000   1.0000   1.0000   1.0000   0.0000   0.0000   0.0000   0.0000

          k = 0.4167-0.0833 0.9167 (   735 PWs)   bands (ev):

    -1.2730   1.9771   4.0122   5.1728  13.7028  17.0937  18.3121  20.0711

     occupation numbers 
     1.0000   1.0000   1.0000   1.0000   0.0000   0.0000   0.0000   0.0000

          k =-0.2500-1.0833 0.2500 (   735 PWs)   bands (ev):

    -1.4374   1.8099   3.8407   6.4787  12.1277  16.5545  20.2898  20.5272

     occupation numbers 
     1.0000   1.0000   1.0000   1.0000   0.0000   0.0000   0.0000   0.0000

          k =-0.4167 0.4167 0.4167 (   745 PWs)   bands (ev):

    -3.2075   1.3809   7.9952   7.9952  14.1335  16.1654  16.1654  18.8107

     occupation numbers 
     1.0000   1.0000   1.0000   1.0000   0.0000   0.0000   0.0000   0.0000

          k = 0.4167-0.4167 1.2500 (   745 PWs)   bands (ev):

    -2.3815   1.1558   5.9466   7.4973  14.0006  16.4204  17.3261  19.7993

     occupation numbers 
     1.0000   1.0000   1.0000   1.0000   0.0000   0.0000   0.0000   0.0000

     the Fermi energy is     9.8267 ev

!    total energy              =     -29.89258079 Ry
     estimated scf accuracy    <          2.5E-09 Ry
     smearing contrib. (-TS)   =      -0.00000000 Ry
     internal energy E=F+TS    =     -29.89258079 Ry

     The total energy is F=E-TS. E is the sum of the following terms:
     one-electron contribution =       5.48363359 Ry
     hartree contribution      =       2.36221930 Ry
     xc contribution           =     -10.91283328 Ry
     ewald contribution        =     -20.66098855 Ry
     one-center paw contrib.   =      -6.16461185 Ry
      -> PAW hartree energy AE =       0.00000000 Ry
      -> PAW hartree energy PS =       0.00000000 Ry
      -> PAW xc energy AE      =       0.00000000 Ry
      -> PAW xc energy PS      =       0.00000000 Ry
      -> total E_H with PAW    =       2.36221930 Ry
      -> total E_XC with PAW   =     -10.91283328 Ry

     convergence has been achieved in   9 iterations

     Writing all to output data dir ./out/sic.save/
 
     init_run     :      0.37s CPU      0.42s WALL (       1 calls)
     electrons    :      2.00s CPU      2.09s WALL (       1 calls)

     Called by init_run:
     wfcinit      :      0.07s CPU      0.10s WALL (       1 calls)
     wfcinit:atom :      0.00s CPU      0.00s WALL (      28 calls)
     wfcinit:wfcr :      0.07s CPU      0.09s WALL (      28 calls)
     potinit      :      0.05s CPU      0.05s WALL (       1 calls)
     hinit0       :      0.20s CPU      0.21s WALL (       1 calls)

     Called by electrons:
     c_bands      :      1.27s CPU      1.32s WALL (       9 calls)
     sum_band     :      0.35s CPU      0.36s WALL (       9 calls)
     v_of_rho     :      0.09s CPU      0.11s WALL (      10 calls)
     v_h          :      0.00s CPU      0.01s WALL (      10 calls)
     v_xc         :      0.09s CPU      0.10s WALL (      10 calls)
     newd         :      0.11s CPU      0.12s WALL (      10 calls)
     PAW_pot      :      0.23s CPU      0.23s WALL (      10 calls)
     mix_rho      :      0.01s CPU      0.01s WALL (       9 calls)

     Called by c_bands:
     init_us_2    :      0.03s CPU      0.04s WALL (     532 calls)
     init_us_2:cp :      0.03s CPU      0.04s WALL (     532 calls)
     cegterg      :      1.18s CPU      1.23s WALL (     252 calls)

     Called by sum_band:
     sum_band:wei :      0.00s CPU      0.00s WALL (       9 calls)
     sum_band:loo :      0.23s CPU      0.23s WALL (       9 calls)
     sum_band:buf :      0.00s CPU      0.00s WALL (     252 calls)
     sum_band:ini :      0.02s CPU      0.02s WALL (     252 calls)
     sum_band:cal :      0.01s CPU      0.01s WALL (     252 calls)
     sum_band:bec :      0.00s CPU      0.00s WALL (     252 calls)
     addusdens    :      0.09s CPU      0.10s WALL (       9 calls)
     addusd:skk   :      0.00s CPU      0.00s WALL (      18 calls)
     addusd:dgemm :      0.01s CPU      0.02s WALL (      18 calls)
     addusd:qvan2 :      0.06s CPU      0.06s WALL (      18 calls)

     Called by *egterg:
     cdiaghg      :      0.05s CPU      0.05s WALL (     809 calls)
     cegterg:over :      0.05s CPU      0.05s WALL (     557 calls)
     cegterg:upda :      0.01s CPU      0.01s WALL (     557 calls)
     cegterg:last :      0.01s CPU      0.01s WALL (     459 calls)
     h_psi        :      1.07s CPU      1.13s WALL (     837 calls)
     s_psi        :      0.02s CPU      0.02s WALL (     837 calls)
     g_psi        :      0.00s CPU      0.00s WALL (     557 calls)

     Called by h_psi:
     h_psi:calbec :      0.03s CPU      0.03s WALL (     837 calls)
     vloc_psi     :      1.01s CPU      1.07s WALL (     837 calls)
     add_vuspsi   :      0.02s CPU      0.02s WALL (     837 calls)

     General routines
     calbec       :      0.04s CPU      0.04s WALL (    1089 calls)
     fft          :      0.06s CPU      0.09s WALL (     128 calls)
     ffts         :      0.00s CPU      0.00s WALL (      19 calls)
     fftw         :      1.15s CPU      1.21s WALL (   12336 calls)
     interpolate  :      0.01s CPU      0.01s WALL (      10 calls)
 
     Parallel routines

     PAW routines
     PAW_pot      :      0.23s CPU      0.23s WALL (      10 calls)
     PAW_symme    :      0.00s CPU      0.00s WALL (      19 calls)
 
     PWSCF        :      2.50s CPU      2.73s WALL

 
   This run was terminated on:  15:58: 9  22Mar2023            

=------------------------------------------------------------------------------=
   JOB DONE.
=------------------------------------------------------------------------------=
