
     Program PWSCF v.7.1 starts on 22Mar2023 at 15:28:16 

     This program is part of the open-source Quantum ESPRESSO suite
     for quantum simulation of materials; please cite
         "P. Giannozzi et al., J. Phys.:Condens. Matter 21 395502 (2009);
         "P. Giannozzi et al., J. Phys.:Condens. Matter 29 465901 (2017);
         "P. Giannozzi et al., J. Chem. Phys. 152 154105 (2020);
          URL http://www.quantum-espresso.org", 
     in publications or presentations arising from this work. More details at
     http://www.quantum-espresso.org/quote

     Parallel version (MPI), running on     2 processors

     MPI processes distributed on     1 nodes
     212640 MiB available memory on the printing compute node when the environment starts
 
     Waiting for input...
     Reading input from standard input

     Current dimensions of program PWSCF are:
     Max number of different atomic species (ntypx) = 10
     Max number of k-points (npk) =  40000
     Max angular momentum in pseudopotentials (lmaxx) =  4
     file C.pbe-n-kjpaw_psl.1.0.0.UPF: wavefunction(s)  2S 2P renormalized
 
     R & G space division:  proc/nbgrp/npool/nimage =       2
     Subspace diagonalization in iterative solution of the eigenvalue problem:
     a serial algorithm will be used

 
     Parallelization info
     --------------------
     sticks:   dense  smooth     PW     G-vecs:    dense   smooth      PW
     Min         423     210     69                 8131     2883     533
     Max         424     211     70                 8134     2886     534
     Sum         847     421    139                16265     5769    1067
 
     Using Slab Decomposition
 


     bravais-lattice index     =            2
     lattice parameter (alat)  =       8.2392  a.u.
     unit-cell volume          =     139.8286 (a.u.)^3
     number of atoms/cell      =            2
     number of atomic types    =            2
     number of electrons       =         8.00
     number of Kohn-Sham states=            8
     kinetic-energy cutoff     =      45.0000  Ry
     charge density cutoff     =     360.0000  Ry
     scf convergence threshold =      1.0E-08
     mixing beta               =       0.2500
     number of iterations used =            8  plain     mixing
     energy convergence thresh.=      1.0E-04
     force convergence thresh. =      1.0E-04
     press convergence thresh. =      5.0E-01
     Exchange-correlation= SLA  PW   PBX  PBC
                           (   1   4   3   4   0   0   0)
     nstep                     =           50


     celldm(1)=   8.239206  celldm(2)=   0.000000  celldm(3)=   0.000000
     celldm(4)=   0.000000  celldm(5)=   0.000000  celldm(6)=   0.000000

     crystal axes: (cart. coord. in units of alat)
               a(1) = (  -0.500000   0.000000   0.500000 )  
               a(2) = (   0.000000   0.500000   0.500000 )  
               a(3) = (  -0.500000   0.500000   0.000000 )  

     reciprocal axes: (cart. coord. in units 2 pi/alat)
               b(1) = ( -1.000000 -1.000000  1.000000 )  
               b(2) = (  1.000000  1.000000  1.000000 )  
               b(3) = ( -1.000000  1.000000 -1.000000 )  


     PseudoPot. # 1 for Si read from file:
     ./pseudo/Si.pbe-n-rrkjus_psl.1.0.0.UPF
     MD5 check sum: 0b0bb1205258b0d07b9f9672cf965d36
     Pseudo is Ultrasoft + core correction, Zval =  4.0
     Generated using "atomic" code by A. Dal Corso  v.5.1
     Using radial grid of 1141 points,  6 beta functions with: 
                l(1) =   0
                l(2) =   0
                l(3) =   1
                l(4) =   1
                l(5) =   2
                l(6) =   2
     Q(r) pseudized with 0 coefficients 


     PseudoPot. # 2 for C  read from file:
     ./pseudo/C.pbe-n-kjpaw_psl.1.0.0.UPF
     MD5 check sum: 5d2aebdfa2cae82b50a7e79e9516da0f
     Pseudo is Projector augmented-wave + core cor, Zval =  4.0
     Generated using "atomic" code by A. Dal Corso  v.5.1
     Shape of augmentation charge: PSQ
     Using radial grid of 1073 points,  4 beta functions with: 
                l(1) =   0
                l(2) =   0
                l(3) =   1
                l(4) =   1
     Q(r) pseudized with 0 coefficients 


     atomic species   valence    mass     pseudopotential
        Si             4.00    28.08550     Si( 1.00)
        C              4.00    12.00000     C ( 1.00)

     24 Sym. Ops. (no inversion) found


                                    s                        frac. trans.

      isym =  1     identity                                     

 cryst.   s( 1) = (     1          0          0      )
                  (     0          1          0      )
                  (     0          0          1      )

 cart.    s( 1) = (  1.0000000  0.0000000  0.0000000 )
                  (  0.0000000  1.0000000  0.0000000 )
                  (  0.0000000  0.0000000  1.0000000 )


      isym =  2     180 deg rotation - cart. axis [0,0,1]        

 cryst.   s( 2) = (     0          1         -1      )
                  (     1          0         -1      )
                  (     0          0         -1      )

 cart.    s( 2) = ( -1.0000000  0.0000000  0.0000000 )
                  (  0.0000000 -1.0000000  0.0000000 )
                  (  0.0000000  0.0000000  1.0000000 )


      isym =  3     180 deg rotation - cart. axis [0,1,0]        

 cryst.   s( 3) = (    -1          0          0      )
                  (    -1          0          1      )
                  (    -1          1          0      )

 cart.    s( 3) = ( -1.0000000  0.0000000  0.0000000 )
                  (  0.0000000  1.0000000  0.0000000 )
                  (  0.0000000  0.0000000 -1.0000000 )


      isym =  4     180 deg rotation - cart. axis [1,0,0]        

 cryst.   s( 4) = (     0         -1          1      )
                  (     0         -1          0      )
                  (     1         -1          0      )

 cart.    s( 4) = (  1.0000000  0.0000000  0.0000000 )
                  (  0.0000000 -1.0000000  0.0000000 )
                  (  0.0000000  0.0000000 -1.0000000 )


      isym =  5     120 deg rotation - cart. axis [-1,-1,-1]     

 cryst.   s( 5) = (    -1          0          1      )
                  (    -1          1          0      )
                  (    -1          0          0      )

 cart.    s( 5) = (  0.0000000  1.0000000  0.0000000 )
                  (  0.0000000  0.0000000  1.0000000 )
                  (  1.0000000  0.0000000  0.0000000 )


      isym =  6     120 deg rotation - cart. axis [-1,1,1]       

 cryst.   s( 6) = (     0          1          0      )
                  (     0          0          1      )
                  (     1          0          0      )

 cart.    s( 6) = (  0.0000000 -1.0000000  0.0000000 )
                  (  0.0000000  0.0000000  1.0000000 )
                  ( -1.0000000  0.0000000  0.0000000 )


      isym =  7     120 deg rotation - cart. axis [1,1,-1]       

 cryst.   s( 7) = (     1          0         -1      )
                  (     0          0         -1      )
                  (     0          1         -1      )

 cart.    s( 7) = (  0.0000000  1.0000000  0.0000000 )
                  (  0.0000000  0.0000000 -1.0000000 )
                  ( -1.0000000  0.0000000  0.0000000 )


      isym =  8     120 deg rotation - cart. axis [1,-1,1]       

 cryst.   s( 8) = (     0         -1          0      )
                  (     1         -1          0      )
                  (     0         -1          1      )

 cart.    s( 8) = (  0.0000000 -1.0000000  0.0000000 )
                  (  0.0000000  0.0000000 -1.0000000 )
                  (  1.0000000  0.0000000  0.0000000 )


      isym =  9     120 deg rotation - cart. axis [1,1,1]        

 cryst.   s( 9) = (     0          0         -1      )
                  (     0          1         -1      )
                  (     1          0         -1      )

 cart.    s( 9) = (  0.0000000  0.0000000  1.0000000 )
                  (  1.0000000  0.0000000  0.0000000 )
                  (  0.0000000  1.0000000  0.0000000 )


      isym = 10     120 deg rotation - cart. axis [-1,1,-1]      

 cryst.   s(10) = (    -1          1          0      )
                  (    -1          0          0      )
                  (    -1          0          1      )

 cart.    s(10) = (  0.0000000  0.0000000  1.0000000 )
                  ( -1.0000000  0.0000000  0.0000000 )
                  (  0.0000000 -1.0000000  0.0000000 )


      isym = 11     120 deg rotation - cart. axis [1,-1,-1]      

 cryst.   s(11) = (     0          0          1      )
                  (     1          0          0      )
                  (     0          1          0      )

 cart.    s(11) = (  0.0000000  0.0000000 -1.0000000 )
                  ( -1.0000000  0.0000000  0.0000000 )
                  (  0.0000000  1.0000000  0.0000000 )


      isym = 12     120 deg rotation - cart. axis [-1,-1,1]      

 cryst.   s(12) = (     1         -1          0      )
                  (     0         -1          1      )
                  (     0         -1          0      )

 cart.    s(12) = (  0.0000000  0.0000000 -1.0000000 )
                  (  1.0000000  0.0000000  0.0000000 )
                  (  0.0000000 -1.0000000  0.0000000 )


      isym = 13     inv. 180 deg rotation - cart. axis [1,1,0]   

 cryst.   s(13) = (     0          1          0      )
                  (     1          0          0      )
                  (     0          0          1      )

 cart.    s(13) = (  0.0000000 -1.0000000  0.0000000 )
                  ( -1.0000000  0.0000000  0.0000000 )
                  (  0.0000000  0.0000000  1.0000000 )


      isym = 14     inv. 180 deg rotation - cart. axis [1,-1,0]  

 cryst.   s(14) = (     1          0         -1      )
                  (     0          1         -1      )
                  (     0          0         -1      )

 cart.    s(14) = (  0.0000000  1.0000000  0.0000000 )
                  (  1.0000000  0.0000000  0.0000000 )
                  (  0.0000000  0.0000000  1.0000000 )


      isym = 15     inv.  90 deg rotation - cart. axis [0,0,-1]  

 cryst.   s(15) = (     0         -1          0      )
                  (     0         -1          1      )
                  (     1         -1          0      )

 cart.    s(15) = (  0.0000000 -1.0000000  0.0000000 )
                  (  1.0000000  0.0000000  0.0000000 )
                  (  0.0000000  0.0000000 -1.0000000 )


      isym = 16     inv.  90 deg rotation - cart. axis [0,0,1]   

 cryst.   s(16) = (    -1          0          1      )
                  (    -1          0          0      )
                  (    -1          1          0      )

 cart.    s(16) = (  0.0000000  1.0000000  0.0000000 )
                  ( -1.0000000  0.0000000  0.0000000 )
                  (  0.0000000  0.0000000 -1.0000000 )


      isym = 17     inv. 180 deg rotation - cart. axis [1,0,1]   

 cryst.   s(17) = (     1          0          0      )
                  (     0          0          1      )
                  (     0          1          0      )

 cart.    s(17) = (  0.0000000  0.0000000 -1.0000000 )
                  (  0.0000000  1.0000000  0.0000000 )
                  ( -1.0000000  0.0000000  0.0000000 )


      isym = 18     inv. 180 deg rotation - cart. axis [-1,0,1]  

 cryst.   s(18) = (    -1          0          0      )
                  (    -1          1          0      )
                  (    -1          0          1      )

 cart.    s(18) = (  0.0000000  0.0000000  1.0000000 )
                  (  0.0000000  1.0000000  0.0000000 )
                  (  1.0000000  0.0000000  0.0000000 )


      isym = 19     inv.  90 deg rotation - cart. axis [0,1,0]   

 cryst.   s(19) = (     0         -1          1      )
                  (     1         -1          0      )
                  (     0         -1          0      )

 cart.    s(19) = (  0.0000000  0.0000000 -1.0000000 )
                  (  0.0000000 -1.0000000  0.0000000 )
                  (  1.0000000  0.0000000  0.0000000 )


      isym = 20     inv.  90 deg rotation - cart. axis [0,-1,0]  

 cryst.   s(20) = (     0          1         -1      )
                  (     0          0         -1      )
                  (     1          0         -1      )

 cart.    s(20) = (  0.0000000  0.0000000  1.0000000 )
                  (  0.0000000 -1.0000000  0.0000000 )
                  ( -1.0000000  0.0000000  0.0000000 )


      isym = 21     inv. 180 deg rotation - cart. axis [0,1,1]   

 cryst.   s(21) = (     1         -1          0      )
                  (     0         -1          0      )
                  (     0         -1          1      )

 cart.    s(21) = (  1.0000000  0.0000000  0.0000000 )
                  (  0.0000000  0.0000000 -1.0000000 )
                  (  0.0000000 -1.0000000  0.0000000 )


      isym = 22     inv. 180 deg rotation - cart. axis [0,1,-1]  

 cryst.   s(22) = (     0          0          1      )
                  (     0          1          0      )
                  (     1          0          0      )

 cart.    s(22) = (  1.0000000  0.0000000  0.0000000 )
                  (  0.0000000  0.0000000  1.0000000 )
                  (  0.0000000  1.0000000  0.0000000 )


      isym = 23     inv.  90 deg rotation - cart. axis [-1,0,0]  

 cryst.   s(23) = (     0          0         -1      )
                  (     1          0         -1      )
                  (     0          1         -1      )

 cart.    s(23) = ( -1.0000000  0.0000000  0.0000000 )
                  (  0.0000000  0.0000000 -1.0000000 )
                  (  0.0000000  1.0000000  0.0000000 )


      isym = 24     inv.  90 deg rotation - cart. axis [1,0,0]   

 cryst.   s(24) = (    -1          1          0      )
                  (    -1          0          1      )
                  (    -1          0          0      )

 cart.    s(24) = ( -1.0000000  0.0000000  0.0000000 )
                  (  0.0000000  0.0000000  1.0000000 )
                  (  0.0000000 -1.0000000  0.0000000 )


     point group T_d (-43m) 
     there are  5 classes
     the character table:

       E     8C3   3C2   6S4   6s_d 
A_1    1.00  1.00  1.00  1.00  1.00
A_2    1.00  1.00  1.00 -1.00 -1.00
E      2.00 -1.00  2.00  0.00  0.00
T_1    3.00  0.00 -1.00  1.00 -1.00
T_2    3.00  0.00 -1.00 -1.00  1.00

     the symmetry operations in each class and the name of the first element:

     E        1
          identity                                               
     8C3      5    7    8    6   12    9   10   11
          120 deg rotation - cart. axis [-1,-1,-1]               
     3C2      2    3    4
          180 deg rotation - cart. axis [0,0,1]                  
     6S4     15   16   20   19   23   24
          inv.  90 deg rotation - cart. axis [0,0,-1]            
     6s_d    13   14   17   18   21   22
          inv. 180 deg rotation - cart. axis [1,1,0]             

   Cartesian axes

     site n.     atom                  positions (alat units)
         1           Si  tau(   1) = (   0.0000000   0.0000000   0.0000000  )
         2           C   tau(   2) = (   0.2500000   0.2500000   0.2500000  )

   Crystallographic axes

     site n.     atom                  positions (cryst. coord.)
         1           Si  tau(   1) = (  0.0000000  0.0000000  0.0000000  )
         2           C   tau(   2) = ( -0.2500000  0.7500000 -0.2500000  )

     number of k points=    28  Gaussian smearing, width (Ry)=  0.0010
                       cart. coord. in units 2pi/alat
        k(    1) = (  -0.0833333   0.0833333   0.0833333), wk =   0.0185185
        k(    2) = (  -0.2500000   0.2500000  -0.0833333), wk =   0.0555556
        k(    3) = (  -0.4166667   0.4166667  -0.2500000), wk =   0.0555556
        k(    4) = (   0.4166667  -0.4166667   0.5833333), wk =   0.0555556
        k(    5) = (   0.2500000  -0.2500000   0.4166667), wk =   0.0555556
        k(    6) = (   0.0833333  -0.0833333   0.2500000), wk =   0.0555556
        k(    7) = (  -0.0833333   0.4166667   0.0833333), wk =   0.0555556
        k(    8) = (  -0.2500000   0.5833333  -0.0833333), wk =   0.1111111
        k(    9) = (   0.5833333  -0.2500000   0.7500000), wk =   0.1111111
        k(   10) = (   0.4166667  -0.0833333   0.5833333), wk =   0.1111111
        k(   11) = (   0.2500000   0.0833333   0.4166667), wk =   0.1111111
        k(   12) = (  -0.0833333   0.7500000   0.0833333), wk =   0.0555556
        k(   13) = (   0.7500000  -0.0833333   0.9166667), wk =   0.1111111
        k(   14) = (   0.5833333   0.0833333   0.7500000), wk =   0.1111111
        k(   15) = (   0.4166667   0.2500000   0.5833333), wk =   0.1111111
        k(   16) = (  -0.0833333  -0.9166667   0.0833333), wk =   0.0555556
        k(   17) = (  -0.2500000  -0.7500000  -0.0833333), wk =   0.1111111
        k(   18) = (  -0.0833333  -0.5833333   0.0833333), wk =   0.0555556
        k(   19) = (  -0.2500000   0.2500000   0.2500000), wk =   0.0185185
        k(   20) = (  -0.4166667   0.4166667   0.0833333), wk =   0.0555556
        k(   21) = (   0.4166667  -0.4166667   0.9166667), wk =   0.0555556
        k(   22) = (   0.2500000  -0.2500000   0.7500000), wk =   0.0555556
        k(   23) = (  -0.2500000   0.5833333   0.2500000), wk =   0.0555556
        k(   24) = (   0.5833333  -0.2500000   1.0833333), wk =   0.1111111
        k(   25) = (   0.4166667  -0.0833333   0.9166667), wk =   0.1111111
        k(   26) = (  -0.2500000  -1.0833333   0.2500000), wk =   0.0555556
        k(   27) = (  -0.4166667   0.4166667   0.4166667), wk =   0.0185185
        k(   28) = (   0.4166667  -0.4166667   1.2500000), wk =   0.0555556

                       cryst. coord.
        k(    1) = (   0.0833333   0.0833333   0.0833333), wk =   0.0185185
        k(    2) = (   0.0833333   0.0833333   0.2500000), wk =   0.0555556
        k(    3) = (   0.0833333   0.0833333   0.4166667), wk =   0.0555556
        k(    4) = (   0.0833333   0.0833333  -0.4166667), wk =   0.0555556
        k(    5) = (   0.0833333   0.0833333  -0.2500000), wk =   0.0555556
        k(    6) = (   0.0833333   0.0833333  -0.0833333), wk =   0.0555556
        k(    7) = (   0.0833333   0.2500000   0.2500000), wk =   0.0555556
        k(    8) = (   0.0833333   0.2500000   0.4166667), wk =   0.1111111
        k(    9) = (   0.0833333   0.2500000  -0.4166667), wk =   0.1111111
        k(   10) = (   0.0833333   0.2500000  -0.2500000), wk =   0.1111111
        k(   11) = (   0.0833333   0.2500000  -0.0833333), wk =   0.1111111
        k(   12) = (   0.0833333   0.4166667   0.4166667), wk =   0.0555556
        k(   13) = (   0.0833333   0.4166667  -0.4166667), wk =   0.1111111
        k(   14) = (   0.0833333   0.4166667  -0.2500000), wk =   0.1111111
        k(   15) = (   0.0833333   0.4166667  -0.0833333), wk =   0.1111111
        k(   16) = (   0.0833333  -0.4166667  -0.4166667), wk =   0.0555556
        k(   17) = (   0.0833333  -0.4166667  -0.2500000), wk =   0.1111111
        k(   18) = (   0.0833333  -0.2500000  -0.2500000), wk =   0.0555556
        k(   19) = (   0.2500000   0.2500000   0.2500000), wk =   0.0185185
        k(   20) = (   0.2500000   0.2500000   0.4166667), wk =   0.0555556
        k(   21) = (   0.2500000   0.2500000  -0.4166667), wk =   0.0555556
        k(   22) = (   0.2500000   0.2500000  -0.2500000), wk =   0.0555556
        k(   23) = (   0.2500000   0.4166667   0.4166667), wk =   0.0555556
        k(   24) = (   0.2500000   0.4166667  -0.4166667), wk =   0.1111111
        k(   25) = (   0.2500000   0.4166667  -0.2500000), wk =   0.1111111
        k(   26) = (   0.2500000  -0.4166667  -0.4166667), wk =   0.0555556
        k(   27) = (   0.4166667   0.4166667   0.4166667), wk =   0.0185185
        k(   28) = (   0.4166667   0.4166667  -0.4166667), wk =   0.0555556

     Dense  grid:    16265 G-vectors     FFT dimensions: (  36,  36,  36)

     Smooth grid:     5769 G-vectors     FFT dimensions: (  25,  25,  25)

     Dynamical RAM for                 wfc:       0.04 MB

     Dynamical RAM for     wfc (w. buffer):       1.26 MB

     Dynamical RAM for           str. fact:       0.25 MB

     Dynamical RAM for           local pot:       0.00 MB

     Dynamical RAM for          nlocal pot:       0.14 MB

     Dynamical RAM for                qrad:       6.09 MB

     Dynamical RAM for          rho,v,vnew:       0.91 MB

     Dynamical RAM for               rhoin:       0.30 MB

     Dynamical RAM for            rho*nmix:       1.99 MB

     Dynamical RAM for           G-vectors:       0.49 MB

     Dynamical RAM for          h,s,v(r/c):       0.01 MB

     Dynamical RAM for          <psi|beta>:       0.00 MB

     Dynamical RAM for                 psi:       0.09 MB

     Dynamical RAM for                hpsi:       0.09 MB

     Dynamical RAM for                spsi:       0.09 MB

     Dynamical RAM for      wfcinit/wfcrot:       0.09 MB

     Dynamical RAM for           addusdens:      23.21 MB

     Dynamical RAM for          addusforce:      23.28 MB

     Dynamical RAM for         addusstress:      24.95 MB

     Estimated static dynamical RAM per process >      10.70 MB

     Estimated max dynamical RAM per process >      37.63 MB

     Estimated total dynamical RAM >      75.26 MB

     Check: negative core charge=   -0.000004

     Initial potential from superposition of free atoms

     starting charge       7.9994, renormalised to       8.0000
     Starting wfcs are    8 randomized atomic wfcs
     Checking if some PAW data can be deallocated... 
       PAW data deallocated on    1 nodes for type:  2

     total cpu time spent up to now is        0.9 secs

     Self-consistent Calculation

     iteration #  1     ecut=    45.00 Ry     beta= 0.25
     Davidson diagonalization with overlap

---- Real-time Memory Report at c_bands before calling an iterative solver
           244 MiB given to the printing process from OS
             0 MiB allocation reported by mallinfo(arena+hblkhd)
        212597 MiB available memory on the node where the printing process lives
------------------
     ethr =  1.00E-02,  avg # of iterations =  3.6

     total cpu time spent up to now is        1.3 secs

     total energy              =     -29.88335034 Ry
     estimated scf accuracy    <       0.44123762 Ry

     iteration #  2     ecut=    45.00 Ry     beta= 0.25
     Davidson diagonalization with overlap

---- Real-time Memory Report at c_bands before calling an iterative solver
           249 MiB given to the printing process from OS
             0 MiB allocation reported by mallinfo(arena+hblkhd)
        212656 MiB available memory on the node where the printing process lives
------------------
     ethr =  5.52E-03,  avg # of iterations =  1.0

     total cpu time spent up to now is        1.5 secs

     total energy              =     -29.87977163 Ry
     estimated scf accuracy    <       0.08293252 Ry

     iteration #  3     ecut=    45.00 Ry     beta= 0.25
     Davidson diagonalization with overlap

---- Real-time Memory Report at c_bands before calling an iterative solver
           249 MiB given to the printing process from OS
             0 MiB allocation reported by mallinfo(arena+hblkhd)
        212497 MiB available memory on the node where the printing process lives
------------------
     ethr =  1.04E-03,  avg # of iterations =  1.8

     total cpu time spent up to now is        1.7 secs

     total energy              =     -29.89265785 Ry
     estimated scf accuracy    <       0.00691870 Ry

     iteration #  4     ecut=    45.00 Ry     beta= 0.25
     Davidson diagonalization with overlap

---- Real-time Memory Report at c_bands before calling an iterative solver
           249 MiB given to the printing process from OS
             0 MiB allocation reported by mallinfo(arena+hblkhd)
        212488 MiB available memory on the node where the printing process lives
------------------
     ethr =  8.65E-05,  avg # of iterations =  2.2

     total cpu time spent up to now is        1.9 secs

     total energy              =     -29.89286930 Ry
     estimated scf accuracy    <       0.00010623 Ry

     iteration #  5     ecut=    45.00 Ry     beta= 0.25
     Davidson diagonalization with overlap

---- Real-time Memory Report at c_bands before calling an iterative solver
           249 MiB given to the printing process from OS
             0 MiB allocation reported by mallinfo(arena+hblkhd)
        212485 MiB available memory on the node where the printing process lives
------------------
     ethr =  1.33E-06,  avg # of iterations =  5.2

     total cpu time spent up to now is        2.1 secs

     total energy              =     -29.89288255 Ry
     estimated scf accuracy    <       0.00001600 Ry

     iteration #  6     ecut=    45.00 Ry     beta= 0.25
     Davidson diagonalization with overlap

---- Real-time Memory Report at c_bands before calling an iterative solver
           250 MiB given to the printing process from OS
             0 MiB allocation reported by mallinfo(arena+hblkhd)
        212445 MiB available memory on the node where the printing process lives
------------------
     ethr =  2.00E-07,  avg # of iterations =  2.0

     total cpu time spent up to now is        2.3 secs

     total energy              =     -29.89288139 Ry
     estimated scf accuracy    <       0.00001207 Ry

     iteration #  7     ecut=    45.00 Ry     beta= 0.25
     Davidson diagonalization with overlap

---- Real-time Memory Report at c_bands before calling an iterative solver
           250 MiB given to the printing process from OS
             0 MiB allocation reported by mallinfo(arena+hblkhd)
        212442 MiB available memory on the node where the printing process lives
------------------
     ethr =  1.51E-07,  avg # of iterations =  1.0

     total cpu time spent up to now is        2.4 secs

     total energy              =     -29.89288302 Ry
     estimated scf accuracy    <       0.00000026 Ry

     iteration #  8     ecut=    45.00 Ry     beta= 0.25
     Davidson diagonalization with overlap

---- Real-time Memory Report at c_bands before calling an iterative solver
           250 MiB given to the printing process from OS
             0 MiB allocation reported by mallinfo(arena+hblkhd)
        212384 MiB available memory on the node where the printing process lives
------------------
     ethr =  3.30E-09,  avg # of iterations =  2.0

     total cpu time spent up to now is        2.6 secs

     total energy              =     -29.89288305 Ry
     estimated scf accuracy    <       0.00000008 Ry

     iteration #  9     ecut=    45.00 Ry     beta= 0.25
     Davidson diagonalization with overlap

---- Real-time Memory Report at c_bands before calling an iterative solver
           250 MiB given to the printing process from OS
             0 MiB allocation reported by mallinfo(arena+hblkhd)
        212476 MiB available memory on the node where the printing process lives
------------------
     ethr =  1.00E-09,  avg # of iterations =  1.0

     total cpu time spent up to now is        2.7 secs

     End of self-consistent calculation

          k =-0.0833 0.0833 0.0833 (   718 PWs)   bands (ev):

    -5.8121   8.7243   9.3569   9.3569  15.9126  16.9009  16.9239  16.9239

     occupation numbers 
     1.0000   1.0000   1.0000   1.0000   0.0000   0.0000   0.0000   0.0000

          k =-0.2500 0.2500-0.0833 (   710 PWs)   bands (ev):

    -5.0996   6.4267   8.2217   9.2398  16.0760  17.1565  17.2132  18.3202

     occupation numbers 
     1.0000   1.0000   1.0000   1.0000   0.0000   0.0000   0.0000   0.0000

          k =-0.4167 0.4167-0.2500 (   718 PWs)   bands (ev):

    -3.4535   2.7843   7.7339   8.6336  15.4255  16.7778  17.0842  19.6981

     occupation numbers 
     1.0000   1.0000   1.0000   1.0000   0.0000   0.0000   0.0000   0.0000

          k = 0.4167-0.4167 0.5833 (   721 PWs)   bands (ev):

    -2.3575   1.1227   7.8587   8.1918  15.0870  16.3570  17.1187  20.0420

     occupation numbers 
     1.0000   1.0000   1.0000   1.0000   0.0000   0.0000   0.0000   0.0000

          k = 0.2500-0.2500 0.4167 (   718 PWs)   bands (ev):

    -4.0791   3.9522   8.2348   8.4386  15.2891  16.8452  17.8439  18.9858

     occupation numbers 
     1.0000   1.0000   1.0000   1.0000   0.0000   0.0000   0.0000   0.0000

          k = 0.0833-0.0833 0.2500 (   705 PWs)   bands (ev):

    -5.4529   7.6293   8.7735   9.0226  15.8255  16.6687  17.7585  17.8461

     occupation numbers 
     1.0000   1.0000   1.0000   1.0000   0.0000   0.0000   0.0000   0.0000

          k =-0.0833 0.4167 0.0833 (   706 PWs)   bands (ev):

    -4.7456   6.3600   7.9629   8.0800  14.5528  16.6807  18.6473  19.0486

     occupation numbers 
     1.0000   1.0000   1.0000   1.0000   0.0000   0.0000   0.0000   0.0000

          k =-0.2500 0.5833-0.0833 (   710 PWs)   bands (ev):

    -3.4066   4.1426   6.4262   7.5537  14.0956  16.8024  18.4474  20.1080

     occupation numbers 
     1.0000   1.0000   1.0000   1.0000   0.0000   0.0000   0.0000   0.0000

          k = 0.5833-0.2500 0.7500 (   714 PWs)   bands (ev):

    -1.7790   1.7252   5.6967   7.2160  14.2945  17.1780  19.4437  20.3030

     occupation numbers 
     1.0000   1.0000   1.0000   1.0000   0.0000   0.0000   0.0000   0.0000

          k = 0.4167-0.0833 0.5833 (   711 PWs)   bands (ev):

    -2.8172   3.1883   5.5351   7.8860  15.0960  17.0655  18.8344  19.5660

     occupation numbers 
     1.0000   1.0000   1.0000   1.0000   0.0000   0.0000   0.0000   0.0000

          k = 0.2500 0.0833 0.4167 (   711 PWs)   bands (ev):

    -4.4061   5.2206   7.3293   8.6743  15.4513  17.1620  18.0263  18.4793

     occupation numbers 
     1.0000   1.0000   1.0000   1.0000   0.0000   0.0000   0.0000   0.0000

          k =-0.0833 0.7500 0.0833 (   709 PWs)   bands (ev):

    -2.4402   3.4546   6.1998   6.6580  11.8994  14.6827  21.7110  21.9230

     occupation numbers 
     1.0000   1.0000   1.0000   1.0000   0.0000   0.0000   0.0000   0.0000

          k = 0.7500-0.0833 0.9167 (   715 PWs)   bands (ev):

    -1.0553   2.1877   4.8723   6.0721  12.5068  15.7609  21.0817  22.8168

     occupation numbers 
     1.0000   1.0000   1.0000   1.0000   0.0000   0.0000   0.0000   0.0000

          k = 0.5833 0.0833 0.7500 (   712 PWs)   bands (ev):

    -1.3141   2.2219   4.2444   6.8542  13.8471  18.1081  19.8818  20.8694

     occupation numbers 
     1.0000   1.0000   1.0000   1.0000   0.0000   0.0000   0.0000   0.0000

          k = 0.4167 0.2500 0.5833 (   714 PWs)   bands (ev):

    -2.6129   1.9702   6.9306   7.9934  15.0966  16.4214  18.1383  20.0459

     occupation numbers 
     1.0000   1.0000   1.0000   1.0000   0.0000   0.0000   0.0000   0.0000

          k =-0.0833-0.9167 0.0833 (   714 PWs)   bands (ev):

    -1.1792   2.0201   5.7844   6.3693  11.2844  14.2600  22.9719  22.9876

     occupation numbers 
     1.0000   1.0000   1.0000   1.0000   0.0000   0.0000   0.0000   0.0000

          k =-0.2500-0.7500-0.0833 (   714 PWs)   bands (ev):

    -2.1883   3.1376   5.5301   6.5380  13.0403  16.1177  19.7394  21.7647

     occupation numbers 
     1.0000   1.0000   1.0000   1.0000   0.0000   0.0000   0.0000   0.0000

          k =-0.0833-0.5833 0.0833 (   714 PWs)   bands (ev):

    -3.7182   4.9888   7.0172   7.2105  13.0769  15.5419  20.1204  20.4984

     occupation numbers 
     1.0000   1.0000   1.0000   1.0000   0.0000   0.0000   0.0000   0.0000

          k =-0.2500 0.2500 0.2500 (   715 PWs)   bands (ev):

    -4.7538   5.1582   8.8452   8.8452  15.4284  17.3505  17.3505  18.7957

     occupation numbers 
     1.0000   1.0000   1.0000   1.0000   0.0000   0.0000   0.0000   0.0000

          k =-0.4167 0.4167 0.0833 (   720 PWs)   bands (ev):

    -3.7460   4.0926   6.4004   8.7143  15.8397  17.2612  17.7497  19.0173

     occupation numbers 
     1.0000   1.0000   1.0000   1.0000   0.0000   0.0000   0.0000   0.0000

          k = 0.4167-0.4167 0.9167 (   708 PWs)   bands (ev):

    -2.0459   2.4799   4.7341   7.7862  14.1461  18.4484  19.0343  20.2892

     occupation numbers 
     1.0000   1.0000   1.0000   1.0000   0.0000   0.0000   0.0000   0.0000

          k = 0.2500-0.2500 0.7500 (   711 PWs)   bands (ev):

    -2.0038   2.3901   5.4964   7.1432  13.1783  17.4159  19.9328  19.9332

     occupation numbers 
     1.0000   1.0000   1.0000   1.0000   0.0000   0.0000   0.0000   0.0000

          k =-0.2500 0.5833 0.2500 (   713 PWs)   bands (ev):

    -3.1216   3.0025   7.1351   7.6185  14.2314  17.3574  18.7382  18.9306

     occupation numbers 
     1.0000   1.0000   1.0000   1.0000   0.0000   0.0000   0.0000   0.0000

          k = 0.5833-0.2500 1.0833 (   714 PWs)   bands (ev):

    -1.7542   2.5971   4.8464   6.5334  14.5280  17.4633  18.5744  21.3069

     occupation numbers 
     1.0000   1.0000   1.0000   1.0000   0.0000   0.0000   0.0000   0.0000

          k = 0.4167-0.0833 0.9167 (   716 PWs)   bands (ev):

    -0.9166   2.3685   4.3211   5.5221  14.2230  17.8219  19.0870  20.8481

     occupation numbers 
     1.0000   1.0000   1.0000   1.0000   0.0000   0.0000   0.0000   0.0000

          k =-0.2500-1.0833 0.2500 (   713 PWs)   bands (ev):

    -1.0880   2.1798   4.1456   6.8887  12.6280  17.2411  21.0696  21.4002

     occupation numbers 
     1.0000   1.0000   1.0000   1.0000   0.0000   0.0000   0.0000   0.0000

          k =-0.4167 0.4167 0.4167 (   721 PWs)   bands (ev):

    -2.9284   1.6779   8.4519   8.4519  14.9346  16.7917  16.7917  19.5031

     occupation numbers 
     1.0000   1.0000   1.0000   1.0000   0.0000   0.0000   0.0000   0.0000

          k = 0.4167-0.4167 1.2500 (   710 PWs)   bands (ev):

    -2.0644   1.4431   6.3640   7.9390  14.5933  17.1752  17.9876  20.6157

     occupation numbers 
     1.0000   1.0000   1.0000   1.0000   0.0000   0.0000   0.0000   0.0000

     the Fermi energy is    10.4048 ev

!    total energy              =     -29.89288306 Ry
     estimated scf accuracy    <          4.1E-09 Ry
     smearing contrib. (-TS)   =      -0.00000000 Ry
     internal energy E=F+TS    =     -29.89288306 Ry

     The total energy is F=E-TS. E is the sum of the following terms:
     one-electron contribution =       5.83082569 Ry
     hartree contribution      =       2.33399567 Ry
     xc contribution           =     -10.97096977 Ry
     ewald contribution        =     -20.92162029 Ry
     one-center paw contrib.   =      -6.16511436 Ry
      -> PAW hartree energy AE =       0.00000000 Ry
      -> PAW hartree energy PS =       0.00000000 Ry
      -> PAW xc energy AE      =       0.00000000 Ry
      -> PAW xc energy PS      =       0.00000000 Ry
      -> total E_H with PAW    =       2.33399567 Ry
      -> total E_XC with PAW   =     -10.97096977 Ry

     convergence has been achieved in   9 iterations

     Forces acting on atoms (cartesian axes, Ry/au):

     atom    1 type  1   force =    -0.00000000   -0.00000000    0.00000000
     atom    2 type  2   force =     0.00000000    0.00000000   -0.00000000
     The non-local contrib.  to forces
     atom    1 type  1   force =    -0.00000000    0.00000000    0.00000000
     atom    2 type  2   force =     0.00000000    0.00000000    0.00000000
     The ionic contribution  to forces
     atom    1 type  1   force =    -0.00000000    0.00000000   -0.00000000
     atom    2 type  2   force =     0.00000000   -0.00000000    0.00000000
     The local contribution  to forces
     atom    1 type  1   force =     0.00000000    0.00000000   -0.00000000
     atom    2 type  2   force =     0.00000000    0.00000000    0.00000000
     The core correction contribution to forces
     atom    1 type  1   force =    -0.00000000    0.00000000    0.00000000
     atom    2 type  2   force =    -0.00000000   -0.00000000   -0.00000000
     The Hubbard contrib.    to forces
     atom    1 type  1   force =     0.00000000    0.00000000    0.00000000
     atom    2 type  2   force =     0.00000000    0.00000000    0.00000000
     The SCF correction term to forces
     atom    1 type  1   force =    -0.00000000   -0.00000000    0.00000000
     atom    2 type  2   force =     0.00000000   -0.00000000    0.00000000

     Total force =     0.000000     Total SCF correction =     0.000000


     Computing stress (Cartesian axis) and pressure

          total   stress  (Ry/bohr**3)                   (kbar)     P=       31.85
   0.00021651   0.00000000   0.00000000           31.85        0.00        0.00
   0.00000000   0.00021651   0.00000000            0.00       31.85        0.00
  -0.00000000  -0.00000000   0.00021651           -0.00       -0.00       31.85

     kinetic stress (kbar)   7507.78      0.00     -0.00
                                0.00   7507.78      0.00
                               -0.00      0.00   7507.78

     local   stress (kbar)  -1282.31      0.00     -0.00
                                0.00  -1282.31      0.00
                               -0.00      0.00  -1282.31

     nonloc. stress (kbar)   2631.55      0.00      0.00
                                0.00   2631.55      0.00
                                0.00      0.00   2631.55

     hartree stress (kbar)    818.48     -0.00     -0.00
                               -0.00    818.48     -0.00
                               -0.00     -0.00    818.48

     exc-cor stress (kbar)   2684.84     -0.00     -0.00
                               -0.00   2684.84     -0.00
                               -0.00     -0.00   2684.84

     corecor stress (kbar)  -4991.72      0.00      0.00
                                0.00  -4991.72      0.00
                                0.00     -0.00  -4991.72

     ewald   stress (kbar)  -7336.78     -0.00      0.00
                               -0.00  -7336.78      0.00
                                0.00      0.00  -7336.78

     hubbard stress (kbar)      0.00      0.00      0.00
                                0.00      0.00      0.00
                                0.00      0.00      0.00

     DFT-D   stress (kbar)      0.00      0.00      0.00
                                0.00      0.00      0.00
                                0.00      0.00      0.00

     XDM     stress (kbar)      0.00      0.00      0.00
                                0.00      0.00      0.00
                                0.00      0.00      0.00

     dft-nl  stress (kbar)      0.00      0.00      0.00
                                0.00      0.00      0.00
                                0.00      0.00      0.00

     TS-vdW  stress (kbar)      0.00      0.00      0.00
                                0.00      0.00      0.00
                                0.00      0.00      0.00

     MDB     stress (kbar)      0.00      0.00      0.00
                                0.00      0.00      0.00
                                0.00      0.00      0.00

     3D-RISM stress (kbar)      0.00      0.00      0.00
                                0.00      0.00      0.00
                                0.00      0.00      0.00


     BFGS Geometry Optimization
     Energy error            =      0.0E+00 Ry
     Gradient error          =      4.9E-32 Ry/Bohr
     Cell gradient error     =      3.2E+01 kbar

     number of scf cycles    =   1
     number of bfgs steps    =   0

     enthalpy           new  =     -29.8928830615 Ry

     new trust radius        =       0.0128008151 bohr
ibrav =      2
 celldm(1) =      8.28380180
Input lattice vectors:
    -0.50270632     0.00000000     0.50270632
     0.00000000     0.50270632     0.50270632
    -0.50270632     0.50270632    -0.00000000
New lattice vectors in INITIAL alat:
    -0.50270632     0.00000000     0.50270632
     0.00000000     0.50270632     0.50270632
    -0.50270632     0.50270632     0.00000000
New lattice vectors in NEW alat (for information only):
    -0.50000000     0.00000000     0.50000000
     0.00000000     0.50000000     0.50000000
    -0.50000000     0.50000000     0.00000000
Discrepancy in bohr =     0.000000    0.000000    0.000000

Atomic positions rescaled with new alat:
Si           -0.0000000000       -0.0000000000        0.0000000000
C             0.2500000000        0.2500000000        0.2500000000
     new conv_thr            =       0.0000000100 Ry

     new unit-cell volume =    142.11146 a.u.^3 (    21.05875 Ang^3 )
     density =      3.16085 g/cm^3

CELL_PARAMETERS (alat=  8.23920590)
  -0.502706323   0.000000000   0.502706323
   0.000000000   0.502706323   0.502706323
  -0.502706323   0.502706323   0.000000000

ATOMIC_POSITIONS (alat)
Si           -0.0000000000       -0.0000000000        0.0000000000
C             0.2513531614        0.2513531614        0.2513531614



     Writing config-only to output data dir ./out/sic.save/
     NEW-OLD atomic charge density approx. for the potential

     Check: negative core charge=   -0.000004
     extrapolated charge    8.12850, renormalised to    8.00000

     total cpu time spent up to now is        3.4 secs

     Self-consistent Calculation

     iteration #  1     ecut=    45.00 Ry     beta= 0.25
     Davidson diagonalization with overlap

---- Real-time Memory Report at c_bands before calling an iterative solver
           252 MiB given to the printing process from OS
             0 MiB allocation reported by mallinfo(arena+hblkhd)
        212484 MiB available memory on the node where the printing process lives
------------------
     ethr =  1.00E-06,  avg # of iterations =  3.8

     total cpu time spent up to now is        3.6 secs

     total energy              =     -29.89202869 Ry
     estimated scf accuracy    <       0.00102300 Ry

     iteration #  2     ecut=    45.00 Ry     beta= 0.25
     Davidson diagonalization with overlap

---- Real-time Memory Report at c_bands before calling an iterative solver
           252 MiB given to the printing process from OS
             0 MiB allocation reported by mallinfo(arena+hblkhd)
        212493 MiB available memory on the node where the printing process lives
------------------
     ethr =  1.28E-05,  avg # of iterations =  2.0

     total cpu time spent up to now is        3.8 secs

     total energy              =     -29.89316174 Ry
     estimated scf accuracy    <       0.00043213 Ry

     iteration #  3     ecut=    45.00 Ry     beta= 0.25
     Davidson diagonalization with overlap

---- Real-time Memory Report at c_bands before calling an iterative solver
           252 MiB given to the printing process from OS
             0 MiB allocation reported by mallinfo(arena+hblkhd)
        212485 MiB available memory on the node where the printing process lives
------------------
     ethr =  5.40E-06,  avg # of iterations =  1.0

     total cpu time spent up to now is        3.9 secs

     total energy              =     -29.89304312 Ry
     estimated scf accuracy    <       0.00022191 Ry

     iteration #  4     ecut=    45.00 Ry     beta= 0.25
     Davidson diagonalization with overlap

---- Real-time Memory Report at c_bands before calling an iterative solver
           252 MiB given to the printing process from OS
             0 MiB allocation reported by mallinfo(arena+hblkhd)
        212486 MiB available memory on the node where the printing process lives
------------------
     ethr =  2.77E-06,  avg # of iterations =  2.0

     total cpu time spent up to now is        4.1 secs

     total energy              =     -29.89309994 Ry
     estimated scf accuracy    <       0.00000545 Ry

     iteration #  5     ecut=    45.00 Ry     beta= 0.25
     Davidson diagonalization with overlap

---- Real-time Memory Report at c_bands before calling an iterative solver
           252 MiB given to the printing process from OS
             0 MiB allocation reported by mallinfo(arena+hblkhd)
        212450 MiB available memory on the node where the printing process lives
------------------
     ethr =  6.82E-08,  avg # of iterations =  1.8

     total cpu time spent up to now is        4.3 secs

     total energy              =     -29.89309628 Ry
     estimated scf accuracy    <       0.00000775 Ry

     iteration #  6     ecut=    45.00 Ry     beta= 0.25
     Davidson diagonalization with overlap

---- Real-time Memory Report at c_bands before calling an iterative solver
           252 MiB given to the printing process from OS
             0 MiB allocation reported by mallinfo(arena+hblkhd)
        212450 MiB available memory on the node where the printing process lives
------------------
     ethr =  6.82E-08,  avg # of iterations =  2.0

     total cpu time spent up to now is        4.4 secs

     total energy              =     -29.89309830 Ry
     estimated scf accuracy    <       0.00000047 Ry

     iteration #  7     ecut=    45.00 Ry     beta= 0.25
     Davidson diagonalization with overlap

---- Real-time Memory Report at c_bands before calling an iterative solver
           252 MiB given to the printing process from OS
             0 MiB allocation reported by mallinfo(arena+hblkhd)
        212484 MiB available memory on the node where the printing process lives
------------------
     ethr =  5.85E-09,  avg # of iterations =  1.1

     total cpu time spent up to now is        4.6 secs

     total energy              =     -29.89309806 Ry
     estimated scf accuracy    <       0.00000067 Ry

     iteration #  8     ecut=    45.00 Ry     beta= 0.25
     Davidson diagonalization with overlap

---- Real-time Memory Report at c_bands before calling an iterative solver
           252 MiB given to the printing process from OS
             0 MiB allocation reported by mallinfo(arena+hblkhd)
        212377 MiB available memory on the node where the printing process lives
------------------
     ethr =  5.85E-09,  avg # of iterations =  1.0

     total cpu time spent up to now is        4.7 secs

     total energy              =     -29.89309810 Ry
     estimated scf accuracy    <       0.00000004 Ry

     iteration #  9     ecut=    45.00 Ry     beta= 0.25
     Davidson diagonalization with overlap

---- Real-time Memory Report at c_bands before calling an iterative solver
           252 MiB given to the printing process from OS
             0 MiB allocation reported by mallinfo(arena+hblkhd)
        212414 MiB available memory on the node where the printing process lives
------------------
     ethr =  5.54E-10,  avg # of iterations =  2.0

     total cpu time spent up to now is        4.9 secs

     total energy              =     -29.89309811 Ry
     estimated scf accuracy    <       0.00000002 Ry

     iteration # 10     ecut=    45.00 Ry     beta= 0.25
     Davidson diagonalization with overlap

---- Real-time Memory Report at c_bands before calling an iterative solver
           252 MiB given to the printing process from OS
             0 MiB allocation reported by mallinfo(arena+hblkhd)
        212448 MiB available memory on the node where the printing process lives
------------------
     ethr =  2.22E-10,  avg # of iterations =  1.0

     total cpu time spent up to now is        5.0 secs

     total energy              =     -29.89309811 Ry
     estimated scf accuracy    <       0.00000002 Ry

     iteration # 11     ecut=    45.00 Ry     beta= 0.25
     Davidson diagonalization with overlap

---- Real-time Memory Report at c_bands before calling an iterative solver
           252 MiB given to the printing process from OS
             0 MiB allocation reported by mallinfo(arena+hblkhd)
        212483 MiB available memory on the node where the printing process lives
------------------
     ethr =  2.07E-10,  avg # of iterations =  2.0

     total cpu time spent up to now is        5.2 secs

     End of self-consistent calculation

          k =-0.0829 0.0829 0.0829 (   718 PWs)   bands (ev):

    -5.8889   8.5231   9.1551   9.1551  15.5362  16.5742  16.6091  16.6091

     occupation numbers 
     1.0000   1.0000   1.0000   1.0000   0.0000   0.0000   0.0000   0.0000

          k =-0.2487 0.2487-0.0829 (   710 PWs)   bands (ev):

    -5.1858   6.2388   8.0290   9.0358  15.7364  16.8227  16.9003  17.9921

     occupation numbers 
     1.0000   1.0000   1.0000   1.0000   0.0000   0.0000   0.0000   0.0000

          k =-0.4144 0.4144-0.2487 (   718 PWs)   bands (ev):

    -3.5641   2.6379   7.5416   8.4333  15.0894  16.5002  16.8040  19.3649

     occupation numbers 
     1.0000   1.0000   1.0000   1.0000   0.0000   0.0000   0.0000   0.0000

          k = 0.4144-0.4144 0.5802 (   721 PWs)   bands (ev):

    -2.4914   1.0049   7.6624   7.9967  14.7680  16.0766  16.8444  19.7228

     occupation numbers 
     1.0000   1.0000   1.0000   1.0000   0.0000   0.0000   0.0000   0.0000

          k = 0.2487-0.2487 0.4144 (   718 PWs)   bands (ev):

    -4.1797   3.7907   8.0416   8.2370  14.9760  16.5383  17.5448  18.6600

     occupation numbers 
     1.0000   1.0000   1.0000   1.0000   0.0000   0.0000   0.0000   0.0000

          k = 0.0829-0.0829 0.2487 (   705 PWs)   bands (ev):

    -5.5344   7.4313   8.5773   8.8201  15.5179  16.2988  17.4358  17.5204

     occupation numbers 
     1.0000   1.0000   1.0000   1.0000   0.0000   0.0000   0.0000   0.0000

          k =-0.0829 0.4144 0.0829 (   706 PWs)   bands (ev):

    -4.8364   6.1648   7.7749   7.8842  14.2807  16.3639  18.3208  18.7138

     occupation numbers 
     1.0000   1.0000   1.0000   1.0000   0.0000   0.0000   0.0000   0.0000

          k =-0.2487 0.5802-0.0829 (   710 PWs)   bands (ev):

    -3.5163   3.9678   6.2499   7.3671  13.8537  16.5061  18.1097  19.7668

     occupation numbers 
     1.0000   1.0000   1.0000   1.0000   0.0000   0.0000   0.0000   0.0000

          k = 0.5802-0.2487 0.7460 (   714 PWs)   bands (ev):

    -1.9205   1.5928   5.5224   7.0360  14.0568  16.8629  19.1146  19.9586

     occupation numbers 
     1.0000   1.0000   1.0000   1.0000   0.0000   0.0000   0.0000   0.0000

          k = 0.4144-0.0829 0.5802 (   711 PWs)   bands (ev):

    -2.9371   3.0286   5.3689   7.6953  14.8490  16.7455  18.4925  19.2453

     occupation numbers 
     1.0000   1.0000   1.0000   1.0000   0.0000   0.0000   0.0000   0.0000

          k = 0.2487 0.0829 0.4144 (   711 PWs)   bands (ev):

    -4.5017   5.0411   7.1443   8.4733  15.1691  16.8059  17.7301  18.1613

     occupation numbers 
     1.0000   1.0000   1.0000   1.0000   0.0000   0.0000   0.0000   0.0000

          k =-0.0829 0.7460 0.0829 (   709 PWs)   bands (ev):

    -2.5635   3.2741   6.0326   6.4835  11.6926  14.4170  21.3314  21.5588

     occupation numbers 
     1.0000   1.0000   1.0000   1.0000   0.0000   0.0000   0.0000   0.0000

          k = 0.7460-0.0829 0.9117 (   715 PWs)   bands (ev):

    -1.2052   2.0236   4.7283   5.9075  12.2953  15.4785  20.7254  22.4353

     occupation numbers 
     1.0000   1.0000   1.0000   1.0000   0.0000   0.0000   0.0000   0.0000

          k = 0.5802 0.0829 0.7460 (   712 PWs)   bands (ev):

    -1.4628   2.0693   4.1022   6.6786  13.6166  17.7919  19.5257  20.5514

     occupation numbers 
     1.0000   1.0000   1.0000   1.0000   0.0000   0.0000   0.0000   0.0000

          k = 0.4144 0.2487 0.5802 (   714 PWs)   bands (ev):

    -2.7384   1.8351   6.7430   7.8010  14.8290  16.1137  17.8358  19.7039

     occupation numbers 
     1.0000   1.0000   1.0000   1.0000   0.0000   0.0000   0.0000   0.0000

          k =-0.0829-0.9117 0.0829 (   714 PWs)   bands (ev):

    -1.3250   1.8609   5.6235   6.1978  11.0894  13.9964  22.5928  22.5984

     occupation numbers 
     1.0000   1.0000   1.0000   1.0000   0.0000   0.0000   0.0000   0.0000

          k =-0.2487-0.7460-0.0829 (   714 PWs)   bands (ev):

    -2.3169   2.9646   5.3690   6.3683  12.8203  15.8324  19.3914  21.4006

     occupation numbers 
     1.0000   1.0000   1.0000   1.0000   0.0000   0.0000   0.0000   0.0000

          k =-0.0829-0.5802 0.0829 (   714 PWs)   bands (ev):

    -3.8229   4.7967   6.8364   7.0302  12.8429  15.2693  19.7587  20.1500

     occupation numbers 
     1.0000   1.0000   1.0000   1.0000   0.0000   0.0000   0.0000   0.0000

          k =-0.2487 0.2487 0.2487 (   715 PWs)   bands (ev):

    -4.8448   4.9846   8.6454   8.6454  15.0831  17.0477  17.0477  18.4503

     occupation numbers 
     1.0000   1.0000   1.0000   1.0000   0.0000   0.0000   0.0000   0.0000

          k =-0.4144 0.4144 0.0829 (   720 PWs)   bands (ev):

    -3.8513   3.9251   6.2245   8.5133  15.5519  16.9349  17.4493  18.6726

     occupation numbers 
     1.0000   1.0000   1.0000   1.0000   0.0000   0.0000   0.0000   0.0000

          k = 0.4144-0.4144 0.9117 (   708 PWs)   bands (ev):

    -2.1802   2.3297   4.5795   7.5963  13.9044  18.1120  18.7279  19.9235

     occupation numbers 
     1.0000   1.0000   1.0000   1.0000   0.0000   0.0000   0.0000   0.0000

          k = 0.2487-0.2487 0.7460 (   711 PWs)   bands (ev):

    -2.1377   2.2396   5.3296   6.9622  12.9524  17.1148  19.5638  19.6141

     occupation numbers 
     1.0000   1.0000   1.0000   1.0000   0.0000   0.0000   0.0000   0.0000

          k =-0.2487 0.5802 0.2487 (   713 PWs)   bands (ev):

    -3.2367   2.8496   6.9436   7.4322  13.9808  17.0370  18.4334  18.5915

     occupation numbers 
     1.0000   1.0000   1.0000   1.0000   0.0000   0.0000   0.0000   0.0000

          k = 0.5802-0.2487 1.0775 (   714 PWs)   bands (ev):

    -1.8926   2.4381   4.6911   6.3650  14.2986  17.1453  18.2431  20.9707

     occupation numbers 
     1.0000   1.0000   1.0000   1.0000   0.0000   0.0000   0.0000   0.0000

          k = 0.4144-0.0829 0.9117 (   716 PWs)   bands (ev):

    -1.0714   2.1988   4.1867   5.3703  13.9975  17.5073  18.7508  20.5099

     occupation numbers 
     1.0000   1.0000   1.0000   1.0000   0.0000   0.0000   0.0000   0.0000

          k =-0.2487-1.0775 0.2487 (   713 PWs)   bands (ev):

    -1.2398   2.0195   4.0130   6.7106  12.4111  16.9438  20.7319  21.0209

     occupation numbers 
     1.0000   1.0000   1.0000   1.0000   0.0000   0.0000   0.0000   0.0000

          k =-0.4144 0.4144 0.4144 (   721 PWs)   bands (ev):

    -3.0497   1.5490   8.2535   8.2535  14.5873  16.5201  16.5201  19.2033

     occupation numbers 
     1.0000   1.0000   1.0000   1.0000   0.0000   0.0000   0.0000   0.0000

          k = 0.4144-0.4144 1.2433 (   710 PWs)   bands (ev):

    -2.2022   1.3186   6.1826   7.7471  14.3373  16.8472  17.7009  20.2614

     occupation numbers 
     1.0000   1.0000   1.0000   1.0000   0.0000   0.0000   0.0000   0.0000

     the Fermi energy is    10.1522 ev

!    total energy              =     -29.89309811 Ry
     estimated scf accuracy    <          6.2E-10 Ry
     smearing contrib. (-TS)   =      -0.00000000 Ry
     internal energy E=F+TS    =     -29.89309811 Ry

     The total energy is F=E-TS. E is the sum of the following terms:
     one-electron contribution =       5.68048357 Ry
     hartree contribution      =       2.34603764 Ry
     xc contribution           =     -10.94574846 Ry
     ewald contribution        =     -20.80898861 Ry
     one-center paw contrib.   =      -6.16488225 Ry
      -> PAW hartree energy AE =       0.00000000 Ry
      -> PAW hartree energy PS =       0.00000000 Ry
      -> PAW xc energy AE      =       0.00000000 Ry
      -> PAW xc energy PS      =       0.00000000 Ry
      -> total E_H with PAW    =       2.34603764 Ry
      -> total E_XC with PAW   =     -10.94574846 Ry

     convergence has been achieved in  11 iterations

     Forces acting on atoms (cartesian axes, Ry/au):

     atom    1 type  1   force =    -0.00000000   -0.00000000    0.00000000
     atom    2 type  2   force =     0.00000000    0.00000000    0.00000000
     The non-local contrib.  to forces
     atom    1 type  1   force =    -0.00000000   -0.00000000   -0.00000000
     atom    2 type  2   force =    -0.00000000    0.00000000   -0.00000000
     The ionic contribution  to forces
     atom    1 type  1   force =     0.00000000   -0.00000000    0.00000000
     atom    2 type  2   force =    -0.00000000    0.00000000    0.00000000
     The local contribution  to forces
     atom    1 type  1   force =     0.00000000   -0.00000000   -0.00000000
     atom    2 type  2   force =     0.00000000    0.00000000    0.00000000
     The core correction contribution to forces
     atom    1 type  1   force =    -0.00000000    0.00000000   -0.00000000
     atom    2 type  2   force =    -0.00000000   -0.00000000   -0.00000000
     The Hubbard contrib.    to forces
     atom    1 type  1   force =     0.00000000    0.00000000    0.00000000
     atom    2 type  2   force =     0.00000000    0.00000000    0.00000000
     The SCF correction term to forces
     atom    1 type  1   force =    -0.00000000    0.00000000    0.00000000
     atom    2 type  2   force =     0.00000000   -0.00000000    0.00000000

     Total force =     0.000000     Total SCF correction =     0.000000


     Computing stress (Cartesian axis) and pressure

          total   stress  (Ry/bohr**3)                   (kbar)     P=       -3.63
  -0.00002469  -0.00000000   0.00000000           -3.63       -0.00        0.00
   0.00000000  -0.00002469   0.00000000            0.00       -3.63        0.00
  -0.00000000   0.00000000  -0.00002469           -0.00        0.00       -3.63

     kinetic stress (kbar)   7339.21     -0.00      0.00
                               -0.00   7339.21      0.00
                                0.00      0.00   7339.21

     local   stress (kbar)  -1296.11      0.00     -0.00
                                0.00  -1296.11      0.00
                               -0.00      0.00  -1296.11

     nonloc. stress (kbar)   2584.70      0.00      0.00
                                0.00   2584.70      0.00
                                0.00     -0.00   2584.70

     hartree stress (kbar)    809.49     -0.00     -0.00
                               -0.00    809.49      0.00
                               -0.00      0.00    809.49

     exc-cor stress (kbar)   2648.28     -0.00     -0.00
                               -0.00   2648.28      0.00
                               -0.00      0.00   2648.28

     corecor stress (kbar)  -4909.14      0.00     -0.00
                                0.00  -4909.14     -0.00
                               -0.00     -0.00  -4909.14

     ewald   stress (kbar)  -7180.06      0.00      0.00
                                0.00  -7180.06      0.00
                                0.00      0.00  -7180.06

     hubbard stress (kbar)      0.00      0.00      0.00
                                0.00      0.00      0.00
                                0.00      0.00      0.00

     DFT-D   stress (kbar)      0.00      0.00      0.00
                                0.00      0.00      0.00
                                0.00      0.00      0.00

     XDM     stress (kbar)      0.00      0.00      0.00
                                0.00      0.00      0.00
                                0.00      0.00      0.00

     dft-nl  stress (kbar)      0.00      0.00      0.00
                                0.00      0.00      0.00
                                0.00      0.00      0.00

     TS-vdW  stress (kbar)      0.00      0.00      0.00
                                0.00      0.00      0.00
                                0.00      0.00      0.00

     MDB     stress (kbar)      0.00      0.00      0.00
                                0.00      0.00      0.00
                                0.00      0.00      0.00

     3D-RISM stress (kbar)      0.00      0.00      0.00
                                0.00      0.00      0.00
                                0.00      0.00      0.00

     Energy error            =      2.2E-04 Ry
     Gradient error          =      9.8E-32 Ry/Bohr
     Cell gradient error     =      3.6E+00 kbar

     number of scf cycles    =   2
     number of bfgs steps    =   1

     enthalpy           old  =     -29.8928830615 Ry
     enthalpy           new  =     -29.8930981088 Ry

     CASE: enthalpy          _new < enthalpy          _old

     new trust radius        =       0.0013264853 bohr
ibrav =      2
 celldm(1) =      8.27919301
Input lattice vectors:
    -0.50242664     0.00000000     0.50242664
     0.00000000     0.50242664     0.50242664
    -0.50242664     0.50242664     0.00000000
New lattice vectors in INITIAL alat:
    -0.50242664     0.00000000     0.50242664
     0.00000000     0.50242664     0.50242664
    -0.50242664     0.50242664     0.00000000
New lattice vectors in NEW alat (for information only):
    -0.50000000     0.00000000     0.50000000
     0.00000000     0.50000000     0.50000000
    -0.50000000     0.50000000     0.00000000
Discrepancy in bohr =     0.000000    0.000000    0.000000

Atomic positions rescaled with new alat:
Si           -0.0000000000       -0.0000000000        0.0000000000
C             0.2500000000        0.2500000000        0.2500000000
     new conv_thr            =            1.0E-10 Ry

     new unit-cell volume =    141.87440 a.u.^3 (    21.02362 Ang^3 )
     density =      3.16613 g/cm^3

CELL_PARAMETERS (alat=  8.23920590)
  -0.502426636   0.000000000   0.502426636
   0.000000000   0.502426636   0.502426636
  -0.502426636   0.502426636   0.000000000

ATOMIC_POSITIONS (alat)
Si           -0.0000000000       -0.0000000000        0.0000000000
C             0.2512133179        0.2512133179        0.2512133179



     Writing config-only to output data dir ./out/sic.save/
     NEW-OLD atomic charge density approx. for the potential

     Check: negative core charge=   -0.000004
     extrapolated charge    7.98663, renormalised to    8.00000

     total cpu time spent up to now is        5.8 secs

     Self-consistent Calculation

     iteration #  1     ecut=    45.00 Ry     beta= 0.25
     Davidson diagonalization with overlap

---- Real-time Memory Report at c_bands before calling an iterative solver
           252 MiB given to the printing process from OS
             0 MiB allocation reported by mallinfo(arena+hblkhd)
        212480 MiB available memory on the node where the printing process lives
------------------
     ethr =  1.00E-06,  avg # of iterations =  2.0

     total cpu time spent up to now is        6.0 secs

     total energy              =     -29.89308985 Ry
     estimated scf accuracy    <       0.00001069 Ry

     iteration #  2     ecut=    45.00 Ry     beta= 0.25
     Davidson diagonalization with overlap

---- Real-time Memory Report at c_bands before calling an iterative solver
           252 MiB given to the printing process from OS
             0 MiB allocation reported by mallinfo(arena+hblkhd)
        212491 MiB available memory on the node where the printing process lives
------------------
     ethr =  1.34E-07,  avg # of iterations =  2.0

     total cpu time spent up to now is        6.2 secs

     total energy              =     -29.89310179 Ry
     estimated scf accuracy    <       0.00000453 Ry

     iteration #  3     ecut=    45.00 Ry     beta= 0.25
     Davidson diagonalization with overlap

---- Real-time Memory Report at c_bands before calling an iterative solver
           252 MiB given to the printing process from OS
             0 MiB allocation reported by mallinfo(arena+hblkhd)
        212491 MiB available memory on the node where the printing process lives
------------------
     ethr =  5.66E-08,  avg # of iterations =  1.0

     total cpu time spent up to now is        6.3 secs

     total energy              =     -29.89310054 Ry
     estimated scf accuracy    <       0.00000233 Ry

     iteration #  4     ecut=    45.00 Ry     beta= 0.25
     Davidson diagonalization with overlap

---- Real-time Memory Report at c_bands before calling an iterative solver
           252 MiB given to the printing process from OS
             0 MiB allocation reported by mallinfo(arena+hblkhd)
        212492 MiB available memory on the node where the printing process lives
------------------
     ethr =  2.91E-08,  avg # of iterations =  2.0

     total cpu time spent up to now is        6.5 secs

     total energy              =     -29.89310113 Ry
     estimated scf accuracy    <       0.00000006 Ry

     iteration #  5     ecut=    45.00 Ry     beta= 0.25
     Davidson diagonalization with overlap

---- Real-time Memory Report at c_bands before calling an iterative solver
           252 MiB given to the printing process from OS
             0 MiB allocation reported by mallinfo(arena+hblkhd)
        212489 MiB available memory on the node where the printing process lives
------------------
     ethr =  7.09E-10,  avg # of iterations =  1.6

     total cpu time spent up to now is        6.6 secs

     total energy              =     -29.89310116 Ry
     estimated scf accuracy    <       0.00000007 Ry

     iteration #  6     ecut=    45.00 Ry     beta= 0.25
     Davidson diagonalization with overlap

---- Real-time Memory Report at c_bands before calling an iterative solver
           252 MiB given to the printing process from OS
             0 MiB allocation reported by mallinfo(arena+hblkhd)
        212490 MiB available memory on the node where the printing process lives
------------------
     ethr =  7.09E-10,  avg # of iterations =  1.0

     total cpu time spent up to now is        6.8 secs

     total energy              =     -29.89310115 Ry
     estimated scf accuracy    <       0.00000014 Ry

     iteration #  7     ecut=    45.00 Ry     beta= 0.25
     Davidson diagonalization with overlap

---- Real-time Memory Report at c_bands before calling an iterative solver
           252 MiB given to the printing process from OS
             0 MiB allocation reported by mallinfo(arena+hblkhd)
        212490 MiB available memory on the node where the printing process lives
------------------
     ethr =  7.09E-10,  avg # of iterations =  1.0

     total cpu time spent up to now is        6.9 secs

     total energy              =     -29.89310118 Ry
     estimated scf accuracy    <       0.00000012 Ry

     iteration #  8     ecut=    45.00 Ry     beta= 0.25
     Davidson diagonalization with overlap

---- Real-time Memory Report at c_bands before calling an iterative solver
           252 MiB given to the printing process from OS
             0 MiB allocation reported by mallinfo(arena+hblkhd)
        212490 MiB available memory on the node where the printing process lives
------------------
     ethr =  7.09E-10,  avg # of iterations =  1.0

     total cpu time spent up to now is        7.1 secs

     total energy              =     -29.89310115 Ry
     estimated scf accuracy    <       0.00000022 Ry

     iteration #  9     ecut=    45.00 Ry     beta= 0.25
     Davidson diagonalization with overlap

---- Real-time Memory Report at c_bands before calling an iterative solver
           252 MiB given to the printing process from OS
             0 MiB allocation reported by mallinfo(arena+hblkhd)
        212523 MiB available memory on the node where the printing process lives
------------------
     ethr =  7.09E-10,  avg # of iterations =  1.0

     total cpu time spent up to now is        7.2 secs

     total energy              =     -29.89310115 Ry
     estimated scf accuracy    <       0.00000012 Ry

     iteration # 10     ecut=    45.00 Ry     beta= 0.25
     Davidson diagonalization with overlap

---- Real-time Memory Report at c_bands before calling an iterative solver
           252 MiB given to the printing process from OS
             0 MiB allocation reported by mallinfo(arena+hblkhd)
        212486 MiB available memory on the node where the printing process lives
------------------
     ethr =  7.09E-10,  avg # of iterations =  1.0

     total cpu time spent up to now is        7.4 secs

     total energy              =     -29.89310110 Ry
     estimated scf accuracy    <       0.00000012 Ry

     iteration # 11     ecut=    45.00 Ry     beta= 0.25
     Davidson diagonalization with overlap

---- Real-time Memory Report at c_bands before calling an iterative solver
           252 MiB given to the printing process from OS
             0 MiB allocation reported by mallinfo(arena+hblkhd)
        212515 MiB available memory on the node where the printing process lives
------------------
     ethr =  7.09E-10,  avg # of iterations =  2.0

     total cpu time spent up to now is        7.5 secs

     total energy              =     -29.89310113 Ry
     estimated scf accuracy    <          7.0E-10 Ry

     iteration # 12     ecut=    45.00 Ry     beta= 0.25
     Davidson diagonalization with overlap

---- Real-time Memory Report at c_bands before calling an iterative solver
           252 MiB given to the printing process from OS
             0 MiB allocation reported by mallinfo(arena+hblkhd)
        212486 MiB available memory on the node where the printing process lives
------------------
     ethr =  8.80E-12,  avg # of iterations =  3.9

     total cpu time spent up to now is        7.7 secs

     total energy              =     -29.89310113 Ry
     estimated scf accuracy    <       0.00000010 Ry

     iteration # 13     ecut=    45.00 Ry     beta= 0.25
     Davidson diagonalization with overlap

---- Real-time Memory Report at c_bands before calling an iterative solver
           252 MiB given to the printing process from OS
             0 MiB allocation reported by mallinfo(arena+hblkhd)
        212476 MiB available memory on the node where the printing process lives
------------------
     ethr =  8.80E-12,  avg # of iterations =  3.0

     total cpu time spent up to now is        7.9 secs

     total energy              =     -29.89310111 Ry
     estimated scf accuracy    <       0.00000004 Ry

     iteration # 14     ecut=    45.00 Ry     beta= 0.25
     Davidson diagonalization with overlap

---- Real-time Memory Report at c_bands before calling an iterative solver
           252 MiB given to the printing process from OS
             0 MiB allocation reported by mallinfo(arena+hblkhd)
        212420 MiB available memory on the node where the printing process lives
------------------
     ethr =  8.80E-12,  avg # of iterations =  3.1

     total cpu time spent up to now is        8.1 secs

     total energy              =     -29.89310111 Ry
     estimated scf accuracy    <          2.4E-09 Ry

     iteration # 15     ecut=    45.00 Ry     beta= 0.25
     Davidson diagonalization with overlap

---- Real-time Memory Report at c_bands before calling an iterative solver
           252 MiB given to the printing process from OS
             0 MiB allocation reported by mallinfo(arena+hblkhd)
        212524 MiB available memory on the node where the printing process lives
------------------
     ethr =  8.80E-12,  avg # of iterations =  2.0

     total cpu time spent up to now is        8.2 secs

     total energy              =     -29.89310112 Ry
     estimated scf accuracy    <          1.8E-10 Ry

     iteration # 16     ecut=    45.00 Ry     beta= 0.25
     Davidson diagonalization with overlap

---- Real-time Memory Report at c_bands before calling an iterative solver
           252 MiB given to the printing process from OS
             0 MiB allocation reported by mallinfo(arena+hblkhd)
        212486 MiB available memory on the node where the printing process lives
------------------
     ethr =  2.23E-12,  avg # of iterations =  2.9

     total cpu time spent up to now is        8.4 secs

     total energy              =     -29.89310112 Ry
     estimated scf accuracy    <          1.9E-09 Ry

     iteration # 17     ecut=    45.00 Ry     beta= 0.25
     Davidson diagonalization with overlap

---- Real-time Memory Report at c_bands before calling an iterative solver
           252 MiB given to the printing process from OS
             0 MiB allocation reported by mallinfo(arena+hblkhd)
        212486 MiB available memory on the node where the printing process lives
------------------
     ethr =  2.23E-12,  avg # of iterations =  1.0

     total cpu time spent up to now is        8.6 secs

     total energy              =     -29.89310112 Ry
     estimated scf accuracy    <          2.2E-09 Ry

     iteration # 18     ecut=    45.00 Ry     beta= 0.25
     Davidson diagonalization with overlap

---- Real-time Memory Report at c_bands before calling an iterative solver
           252 MiB given to the printing process from OS
             0 MiB allocation reported by mallinfo(arena+hblkhd)
        212521 MiB available memory on the node where the printing process lives
------------------
     ethr =  2.23E-12,  avg # of iterations =  2.0

     total cpu time spent up to now is        8.7 secs

     total energy              =     -29.89310111 Ry
     estimated scf accuracy    <          6.5E-09 Ry

     iteration # 19     ecut=    45.00 Ry     beta= 0.25
     Davidson diagonalization with overlap

---- Real-time Memory Report at c_bands before calling an iterative solver
           252 MiB given to the printing process from OS
             0 MiB allocation reported by mallinfo(arena+hblkhd)
        212490 MiB available memory on the node where the printing process lives
------------------
     ethr =  2.23E-12,  avg # of iterations =  3.3

     total cpu time spent up to now is        8.9 secs

     End of self-consistent calculation

          k =-0.0829 0.0829 0.0829 (   718 PWs)   bands (ev):

    -5.8810   8.5438   9.1758   9.1758  15.5750  16.6076  16.6413  16.6413

     occupation numbers 
     1.0000   1.0000   1.0000   1.0000   0.0000   0.0000   0.0000   0.0000

          k =-0.2488 0.2488-0.0829 (   710 PWs)   bands (ev):

    -5.1769   6.2581   8.0488   9.0567  15.7714  16.8568  16.9324  18.0257

     occupation numbers 
     1.0000   1.0000   1.0000   1.0000   0.0000   0.0000   0.0000   0.0000

          k =-0.4147 0.4147-0.2488 (   718 PWs)   bands (ev):

    -3.5528   2.6530   7.5613   8.4539  15.1240  16.5286  16.8327  19.3992

     occupation numbers 
     1.0000   1.0000   1.0000   1.0000   0.0000   0.0000   0.0000   0.0000

          k = 0.4147-0.4147 0.5805 (   721 PWs)   bands (ev):

    -2.4777   1.0170   7.6826   8.0167  14.8009  16.1052  16.8725  19.7556

     occupation numbers 
     1.0000   1.0000   1.0000   1.0000   0.0000   0.0000   0.0000   0.0000

          k = 0.2488-0.2488 0.4147 (   718 PWs)   bands (ev):

    -4.1694   3.8073   8.0614   8.2577  15.0082  16.5697  17.5755  18.6934

     occupation numbers 
     1.0000   1.0000   1.0000   1.0000   0.0000   0.0000   0.0000   0.0000

          k = 0.0829-0.0829 0.2488 (   705 PWs)   bands (ev):

    -5.5260   7.4516   8.5974   8.8409  15.5495  16.3368  17.4688  17.5538

     occupation numbers 
     1.0000   1.0000   1.0000   1.0000   0.0000   0.0000   0.0000   0.0000

          k =-0.0829 0.4147 0.0829 (   706 PWs)   bands (ev):

    -4.8271   6.1849   7.7942   7.9043  14.3086  16.3966  18.3542  18.7481

     occupation numbers 
     1.0000   1.0000   1.0000   1.0000   0.0000   0.0000   0.0000   0.0000

          k =-0.2488 0.5805-0.0829 (   710 PWs)   bands (ev):

    -3.5050   3.9857   6.2680   7.3863  13.8785  16.5366  18.1443  19.8018

     occupation numbers 
     1.0000   1.0000   1.0000   1.0000   0.0000   0.0000   0.0000   0.0000

          k = 0.5805-0.2488 0.7464 (   714 PWs)   bands (ev):

    -1.9060   1.6064   5.5403   7.0545  14.0812  16.8953  19.1484  19.9938

     occupation numbers 
     1.0000   1.0000   1.0000   1.0000   0.0000   0.0000   0.0000   0.0000

          k = 0.4147-0.0829 0.5805 (   711 PWs)   bands (ev):

    -2.9248   3.0450   5.3859   7.7149  14.8743  16.7783  18.5276  19.2781

     occupation numbers 
     1.0000   1.0000   1.0000   1.0000   0.0000   0.0000   0.0000   0.0000

          k = 0.2488 0.0829 0.4147 (   711 PWs)   bands (ev):

    -4.4919   5.0595   7.1633   8.4939  15.1980  16.8425  17.7604  18.1939

     occupation numbers 
     1.0000   1.0000   1.0000   1.0000   0.0000   0.0000   0.0000   0.0000

          k =-0.0829 0.7464 0.0829 (   709 PWs)   bands (ev):

    -2.5509   3.2927   6.0497   6.5014  11.7138  14.4442  21.3703  21.5962

     occupation numbers 
     1.0000   1.0000   1.0000   1.0000   0.0000   0.0000   0.0000   0.0000

          k = 0.7464-0.0829 0.9122 (   715 PWs)   bands (ev):

    -1.1898   2.0404   4.7431   5.9244  12.3170  15.5075  20.7620  22.4744

     occupation numbers 
     1.0000   1.0000   1.0000   1.0000   0.0000   0.0000   0.0000   0.0000

          k = 0.5805 0.0829 0.7464 (   712 PWs)   bands (ev):

    -1.4476   2.0849   4.1167   6.6966  13.6403  17.8244  19.5623  20.5839

     occupation numbers 
     1.0000   1.0000   1.0000   1.0000   0.0000   0.0000   0.0000   0.0000

          k = 0.4147 0.2488 0.5805 (   714 PWs)   bands (ev):

    -2.7256   1.8489   6.7622   7.8208  14.8566  16.1452  17.8668  19.7390

     occupation numbers 
     1.0000   1.0000   1.0000   1.0000   0.0000   0.0000   0.0000   0.0000

          k =-0.0829-0.9122 0.0829 (   714 PWs)   bands (ev):

    -1.3100   1.8773   5.6399   6.2154  11.1094  14.0234  22.6317  22.6384

     occupation numbers 
     1.0000   1.0000   1.0000   1.0000   0.0000   0.0000   0.0000   0.0000

          k =-0.2488-0.7464-0.0829 (   714 PWs)   bands (ev):

    -2.3037   2.9824   5.3855   6.3857  12.8428  15.8617  19.4271  21.4380

     occupation numbers 
     1.0000   1.0000   1.0000   1.0000   0.0000   0.0000   0.0000   0.0000

          k =-0.0829-0.5805 0.0829 (   714 PWs)   bands (ev):

    -3.8121   4.8164   6.8550   7.0487  12.8669  15.2973  19.7957  20.1857

     occupation numbers 
     1.0000   1.0000   1.0000   1.0000   0.0000   0.0000   0.0000   0.0000

          k =-0.2488 0.2488 0.2488 (   715 PWs)   bands (ev):

    -4.8355   5.0025   8.6659   8.6659  15.1186  17.0788  17.0788  18.4857

     occupation numbers 
     1.0000   1.0000   1.0000   1.0000   0.0000   0.0000   0.0000   0.0000

          k =-0.4147 0.4147 0.0829 (   720 PWs)   bands (ev):

    -3.8405   3.9423   6.2425   8.5340  15.5815  16.9684  17.4801  18.7079

     occupation numbers 
     1.0000   1.0000   1.0000   1.0000   0.0000   0.0000   0.0000   0.0000

          k = 0.4147-0.4147 0.9122 (   708 PWs)   bands (ev):

    -2.1664   2.3451   4.5954   7.6158  13.9292  18.1466  18.7593  19.9610

     occupation numbers 
     1.0000   1.0000   1.0000   1.0000   0.0000   0.0000   0.0000   0.0000

          k = 0.2488-0.2488 0.7464 (   711 PWs)   bands (ev):

    -2.1239   2.2551   5.3467   6.9808  12.9756  17.1457  19.6016  19.6468

     occupation numbers 
     1.0000   1.0000   1.0000   1.0000   0.0000   0.0000   0.0000   0.0000

          k =-0.2488 0.5805 0.2488 (   713 PWs)   bands (ev):

    -3.2249   2.8653   6.9632   7.4513  14.0066  17.0700  18.4647  18.6262

     occupation numbers 
     1.0000   1.0000   1.0000   1.0000   0.0000   0.0000   0.0000   0.0000

          k = 0.5805-0.2488 1.0781 (   714 PWs)   bands (ev):

    -1.8784   2.4544   4.7070   6.3823  14.3222  17.1780  18.2771  21.0052

     occupation numbers 
     1.0000   1.0000   1.0000   1.0000   0.0000   0.0000   0.0000   0.0000

          k = 0.4147-0.0829 0.9122 (   716 PWs)   bands (ev):

    -1.0556   2.2162   4.2005   5.3859  14.0206  17.5397  18.7853  20.5445

     occupation numbers 
     1.0000   1.0000   1.0000   1.0000   0.0000   0.0000   0.0000   0.0000

          k =-0.2488-1.0781 0.2488 (   713 PWs)   bands (ev):

    -1.2242   2.0360   4.0266   6.7288  12.4334  16.9744  20.7665  21.0598

     occupation numbers 
     1.0000   1.0000   1.0000   1.0000   0.0000   0.0000   0.0000   0.0000

          k =-0.4147 0.4147 0.4147 (   721 PWs)   bands (ev):

    -3.0372   1.5622   8.2739   8.2739  14.6229  16.5480  16.5480  19.2342

     occupation numbers 
     1.0000   1.0000   1.0000   1.0000   0.0000   0.0000   0.0000   0.0000

          k = 0.4147-0.4147 1.2440 (   710 PWs)   bands (ev):

    -2.1880   1.3314   6.2012   7.7668  14.3637  16.8808  17.7303  20.2977

     occupation numbers 
[...]

     iteration #  5     ecut=    45.00 Ry     beta= 0.25
     Davidson diagonalization with overlap

---- Real-time Memory Report at c_bands before calling an iterative solver
           267 MiB given to the printing process from OS
             0 MiB allocation reported by mallinfo(arena+hblkhd)
        212576 MiB available memory on the node where the printing process lives
------------------
     ethr =  3.57E-06,  avg # of iterations =  4.6

     total cpu time spent up to now is       11.0 secs

     total energy              =     -29.89309375 Ry
     estimated scf accuracy    <       0.00004068 Ry

     iteration #  6     ecut=    45.00 Ry     beta= 0.25
     Davidson diagonalization with overlap

---- Real-time Memory Report at c_bands before calling an iterative solver
           267 MiB given to the printing process from OS
             0 MiB allocation reported by mallinfo(arena+hblkhd)
        212424 MiB available memory on the node where the printing process lives
------------------
     ethr =  5.08E-07,  avg # of iterations =  2.0

     total cpu time spent up to now is       11.2 secs

     total energy              =     -29.89310329 Ry
     estimated scf accuracy    <       0.00002940 Ry

     iteration #  7     ecut=    45.00 Ry     beta= 0.25
     Davidson diagonalization with overlap

---- Real-time Memory Report at c_bands before calling an iterative solver
           267 MiB given to the printing process from OS
             0 MiB allocation reported by mallinfo(arena+hblkhd)
        212517 MiB available memory on the node where the printing process lives
------------------
     ethr =  3.67E-07,  avg # of iterations =  1.1

     total cpu time spent up to now is       11.3 secs

     total energy              =     -29.89310840 Ry
     estimated scf accuracy    <       0.00000016 Ry

     iteration #  8     ecut=    45.00 Ry     beta= 0.25
     Davidson diagonalization with overlap

---- Real-time Memory Report at c_bands before calling an iterative solver
           267 MiB given to the printing process from OS
             0 MiB allocation reported by mallinfo(arena+hblkhd)
        212514 MiB available memory on the node where the printing process lives
------------------
     ethr =  2.01E-09,  avg # of iterations =  3.1

     total cpu time spent up to now is       11.5 secs

     total energy              =     -29.89310858 Ry
     estimated scf accuracy    <          7.3E-09 Ry

     iteration #  9     ecut=    45.00 Ry     beta= 0.25
     Davidson diagonalization with overlap

---- Real-time Memory Report at c_bands before calling an iterative solver
           267 MiB given to the printing process from OS
             0 MiB allocation reported by mallinfo(arena+hblkhd)
        212511 MiB available memory on the node where the printing process lives
------------------
     ethr =  9.11E-11,  avg # of iterations =  2.6

     total cpu time spent up to now is       11.7 secs

     total energy              =     -29.89310859 Ry
     estimated scf accuracy    <       0.00000002 Ry

     iteration # 10     ecut=    45.00 Ry     beta= 0.25
     Davidson diagonalization with overlap

---- Real-time Memory Report at c_bands before calling an iterative solver
           267 MiB given to the printing process from OS
             0 MiB allocation reported by mallinfo(arena+hblkhd)
        212510 MiB available memory on the node where the printing process lives
------------------
     ethr =  9.11E-11,  avg # of iterations =  1.9

     total cpu time spent up to now is       11.8 secs

     total energy              =     -29.89310859 Ry
     estimated scf accuracy    <          1.9E-09 Ry

     iteration # 11     ecut=    45.00 Ry     beta= 0.25
     Davidson diagonalization with overlap

---- Real-time Memory Report at c_bands before calling an iterative solver
           267 MiB given to the printing process from OS
             0 MiB allocation reported by mallinfo(arena+hblkhd)
        212437 MiB available memory on the node where the printing process lives
------------------
     ethr =  2.34E-11,  avg # of iterations =  2.0

     total cpu time spent up to now is       12.0 secs

     End of self-consistent calculation

          k =-0.0829 0.0829 0.0829 (   728 PWs)   bands (ev):

    -5.8811   8.5438   9.1759   9.1759  15.5750  16.6076  16.6413  16.6413

     occupation numbers 
     1.0000   1.0000   1.0000   1.0000   0.0000   0.0000   0.0000   0.0000

          k =-0.2488 0.2488-0.0829 (   723 PWs)   bands (ev):

    -5.1770   6.2581   8.0488   9.0567  15.7714  16.8568  16.9324  18.0257

     occupation numbers 
     1.0000   1.0000   1.0000   1.0000   0.0000   0.0000   0.0000   0.0000

          k =-0.4147 0.4147-0.2488 (   735 PWs)   bands (ev):

    -3.5528   2.6530   7.5613   8.4538  15.1239  16.5286  16.8327  19.3991

     occupation numbers 
     1.0000   1.0000   1.0000   1.0000   0.0000   0.0000   0.0000   0.0000

          k = 0.4147-0.4147 0.5805 (   725 PWs)   bands (ev):

    -2.4777   1.0170   7.6826   8.0167  14.8009  16.1052  16.8725  19.7556

     occupation numbers 
     1.0000   1.0000   1.0000   1.0000   0.0000   0.0000   0.0000   0.0000

          k = 0.2488-0.2488 0.4147 (   726 PWs)   bands (ev):

    -4.1694   3.8073   8.0614   8.2577  15.0082  16.5697  17.5755  18.6934

     occupation numbers 
     1.0000   1.0000   1.0000   1.0000   0.0000   0.0000   0.0000   0.0000

          k = 0.0829-0.0829 0.2488 (   717 PWs)   bands (ev):

    -5.5261   7.4516   8.5974   8.8409  15.5495  16.3367  17.4688  17.5537

     occupation numbers 
     1.0000   1.0000   1.0000   1.0000   0.0000   0.0000   0.0000   0.0000

          k =-0.0829 0.4147 0.0829 (   717 PWs)   bands (ev):

    -4.8271   6.1849   7.7942   7.9043  14.3086  16.3966  18.3541  18.7481

     occupation numbers 
     1.0000   1.0000   1.0000   1.0000   0.0000   0.0000   0.0000   0.0000

          k =-0.2488 0.5805-0.0829 (   728 PWs)   bands (ev):

    -3.5051   3.9857   6.2680   7.3863  13.8785  16.5366  18.1442  19.8017

     occupation numbers 
     1.0000   1.0000   1.0000   1.0000   0.0000   0.0000   0.0000   0.0000

          k = 0.5805-0.2488 0.7464 (   722 PWs)   bands (ev):

    -1.9060   1.6064   5.5403   7.0545  14.0812  16.8953  19.1484  19.9938

     occupation numbers 
     1.0000   1.0000   1.0000   1.0000   0.0000   0.0000   0.0000   0.0000

          k = 0.4147-0.0829 0.5805 (   721 PWs)   bands (ev):

    -2.9248   3.0450   5.3859   7.7149  14.8743  16.7783  18.5276  19.2781

     occupation numbers 
     1.0000   1.0000   1.0000   1.0000   0.0000   0.0000   0.0000   0.0000

          k = 0.2488 0.0829 0.4147 (   724 PWs)   bands (ev):

    -4.4919   5.0595   7.1633   8.4939  15.1980  16.8425  17.7604  18.1938

     occupation numbers 
     1.0000   1.0000   1.0000   1.0000   0.0000   0.0000   0.0000   0.0000

          k =-0.0829 0.7464 0.0829 (   726 PWs)   bands (ev):

    -2.5509   3.2926   6.0497   6.5014  11.7138  14.4442  21.3703  21.5962

     occupation numbers 
     1.0000   1.0000   1.0000   1.0000   0.0000   0.0000   0.0000   0.0000

          k = 0.7464-0.0829 0.9122 (   728 PWs)   bands (ev):

    -1.1898   2.0404   4.7431   5.9244  12.3170  15.5075  20.7620  22.4744

     occupation numbers 
     1.0000   1.0000   1.0000   1.0000   0.0000   0.0000   0.0000   0.0000

          k = 0.5805 0.0829 0.7464 (   720 PWs)   bands (ev):

    -1.4476   2.0849   4.1167   6.6966  13.6403  17.8244  19.5623  20.5839

     occupation numbers 
     1.0000   1.0000   1.0000   1.0000   0.0000   0.0000   0.0000   0.0000

          k = 0.4147 0.2488 0.5805 (   725 PWs)   bands (ev):

    -2.7256   1.8490   6.7622   7.8208  14.8566  16.1452  17.8668  19.7390

     occupation numbers 
     1.0000   1.0000   1.0000   1.0000   0.0000   0.0000   0.0000   0.0000

          k =-0.0829-0.9122 0.0829 (   724 PWs)   bands (ev):

    -1.3100   1.8773   5.6400   6.2154  11.1094  14.0234  22.6317  22.6384

     occupation numbers 
     1.0000   1.0000   1.0000   1.0000   0.0000   0.0000   0.0000   0.0000

          k =-0.2488-0.7464-0.0829 (   724 PWs)   bands (ev):

    -2.3037   2.9824   5.3855   6.3857  12.8428  15.8616  19.4271  21.4380

     occupation numbers 
     1.0000   1.0000   1.0000   1.0000   0.0000   0.0000   0.0000   0.0000

          k =-0.0829-0.5805 0.0829 (   720 PWs)   bands (ev):

    -3.8121   4.8164   6.8550   7.0487  12.8669  15.2973  19.7957  20.1857

     occupation numbers 
     1.0000   1.0000   1.0000   1.0000   0.0000   0.0000   0.0000   0.0000

          k =-0.2488 0.2488 0.2488 (   721 PWs)   bands (ev):

    -4.8355   5.0025   8.6659   8.6659  15.1186  17.0788  17.0788  18.4857

     occupation numbers 
     1.0000   1.0000   1.0000   1.0000   0.0000   0.0000   0.0000   0.0000

          k =-0.4147 0.4147 0.0829 (   729 PWs)   bands (ev):

    -3.8405   3.9423   6.2426   8.5340  15.5815  16.9683  17.4801  18.7079

     occupation numbers 
     1.0000   1.0000   1.0000   1.0000   0.0000   0.0000   0.0000   0.0000

          k = 0.4147-0.4147 0.9122 (   718 PWs)   bands (ev):

    -2.1664   2.3451   4.5954   7.6158  13.9292  18.1466  18.7593  19.9610

     occupation numbers 
     1.0000   1.0000   1.0000   1.0000   0.0000   0.0000   0.0000   0.0000

          k = 0.2488-0.2488 0.7464 (   713 PWs)   bands (ev):

    -2.1239   2.2551   5.3467   6.9808  12.9756  17.1457  19.6016  19.6468

     occupation numbers 
     1.0000   1.0000   1.0000   1.0000   0.0000   0.0000   0.0000   0.0000

          k =-0.2488 0.5805 0.2488 (   722 PWs)   bands (ev):

    -3.2249   2.8653   6.9632   7.4514  14.0066  17.0699  18.4647  18.6262

     occupation numbers 
     1.0000   1.0000   1.0000   1.0000   0.0000   0.0000   0.0000   0.0000

          k = 0.5805-0.2488 1.0781 (   723 PWs)   bands (ev):

    -1.8784   2.4544   4.7070   6.3823  14.3221  17.1780  18.2771  21.0052

     occupation numbers 
     1.0000   1.0000   1.0000   1.0000   0.0000   0.0000   0.0000   0.0000

          k = 0.4147-0.0829 0.9122 (   720 PWs)   bands (ev):

    -1.0556   2.2162   4.2005   5.3859  14.0206  17.5397  18.7853  20.5445

     occupation numbers 
     1.0000   1.0000   1.0000   1.0000   0.0000   0.0000   0.0000   0.0000

          k =-0.2488-1.0781 0.2488 (   722 PWs)   bands (ev):

    -1.2242   2.0360   4.0266   6.7288  12.4334  16.9744  20.7665  21.0598

     occupation numbers 
     1.0000   1.0000   1.0000   1.0000   0.0000   0.0000   0.0000   0.0000

          k =-0.4147 0.4147 0.4147 (   730 PWs)   bands (ev):

    -3.0372   1.5622   8.2739   8.2739  14.6229  16.5479  16.5479  19.2342

     occupation numbers 
     1.0000   1.0000   1.0000   1.0000   0.0000   0.0000   0.0000   0.0000

          k = 0.4147-0.4147 1.2440 (   720 PWs)   bands (ev):

    -2.1880   1.3314   6.2013   7.7668  14.3636  16.8808  17.7303  20.2977

     occupation numbers 
     1.0000   1.0000   1.0000   1.0000   0.0000   0.0000   0.0000   0.0000

     the Fermi energy is    10.1781 ev

!    total energy              =     -29.89310859 Ry
     estimated scf accuracy    <          2.2E-11 Ry
     smearing contrib. (-TS)   =      -0.00000000 Ry
     internal energy E=F+TS    =     -29.89310859 Ry

     The total energy is F=E-TS. E is the sum of the following terms:
     one-electron contribution =       5.69594247 Ry
     hartree contribution      =       2.34475811 Ry
     xc contribution           =     -10.94833293 Ry
     ewald contribution        =     -20.82057240 Ry
     one-center paw contrib.   =      -6.16490384 Ry
      -> PAW hartree energy AE =       0.00000000 Ry
      -> PAW hartree energy PS =       0.00000000 Ry
      -> PAW xc energy AE      =       0.00000000 Ry
      -> PAW xc energy PS      =       0.00000000 Ry
      -> total E_H with PAW    =       2.34475811 Ry
      -> total E_XC with PAW   =     -10.94833293 Ry

     convergence has been achieved in  11 iterations

     Forces acting on atoms (cartesian axes, Ry/au):

     atom    1 type  1   force =    -0.00000000    0.00000000   -0.00000000
     atom    2 type  2   force =    -0.00000000   -0.00000000   -0.00000000
     The non-local contrib.  to forces
     atom    1 type  1   force =    -0.00000000   -0.00000000   -0.00000000
     atom    2 type  2   force =     0.00000000    0.00000000   -0.00000000
     The ionic contribution  to forces
     atom    1 type  1   force =    -0.00000000   -0.00000000   -0.00000000
     atom    2 type  2   force =    -0.00000000    0.00000000    0.00000000
     The local contribution  to forces
     atom    1 type  1   force =     0.00000000    0.00000000    0.00000000
     atom    2 type  2   force =     0.00000000    0.00000000    0.00000000
     The core correction contribution to forces
     atom    1 type  1   force =    -0.00000000    0.00000000   -0.00000000
     atom    2 type  2   force =    -0.00000000   -0.00000000   -0.00000000
     The Hubbard contrib.    to forces
     atom    1 type  1   force =     0.00000000    0.00000000    0.00000000
     atom    2 type  2   force =     0.00000000    0.00000000    0.00000000
     The SCF correction term to forces
     atom    1 type  1   force =     0.00000000   -0.00000000    0.00000000
     atom    2 type  2   force =    -0.00000000    0.00000000    0.00000000

     Total force =     0.000000     Total SCF correction =     0.000000


     Computing stress (Cartesian axis) and pressure

          total   stress  (Ry/bohr**3)                   (kbar)     P=       -0.02
  -0.00000014   0.00000000  -0.00000000           -0.02        0.00       -0.00
  -0.00000000  -0.00000014  -0.00000000           -0.00       -0.02       -0.00
   0.00000000   0.00000000  -0.00000014            0.00        0.00       -0.02

     kinetic stress (kbar)   7356.50      0.00      0.00
                                0.00   7356.50     -0.00
                               -0.00     -0.00   7356.50

     local   stress (kbar)  -1294.69     -0.00     -0.00
                               -0.00  -1294.69     -0.00
                               -0.00     -0.00  -1294.69

     nonloc. stress (kbar)   2589.39     -0.00      0.00
                               -0.00   2589.39     -0.00
                                0.00     -0.00   2589.39

     hartree stress (kbar)    810.40     -0.00      0.00
                               -0.00    810.40      0.00
                                0.00      0.00    810.40

     exc-cor stress (kbar)   2652.03     -0.00     -0.00
                               -0.00   2652.03      0.00
                               -0.00      0.00   2652.03

     corecor stress (kbar)  -4917.59      0.00      0.00
                                0.00  -4917.59     -0.00
                                0.00     -0.00  -4917.59

     ewald   stress (kbar)  -7196.06      0.00     -0.00
                                0.00  -7196.06      0.00
                               -0.00      0.00  -7196.06

     hubbard stress (kbar)      0.00      0.00      0.00
                                0.00      0.00      0.00
                                0.00      0.00      0.00

     DFT-D   stress (kbar)      0.00      0.00      0.00
                                0.00      0.00      0.00
                                0.00      0.00      0.00

     XDM     stress (kbar)      0.00      0.00      0.00
                                0.00      0.00      0.00
                                0.00      0.00      0.00

     dft-nl  stress (kbar)      0.00      0.00      0.00
                                0.00      0.00      0.00
                                0.00      0.00      0.00

     TS-vdW  stress (kbar)      0.00      0.00      0.00
                                0.00      0.00      0.00
                                0.00      0.00      0.00

     MDB     stress (kbar)      0.00      0.00      0.00
                                0.00      0.00      0.00
                                0.00      0.00      0.00

     3D-RISM stress (kbar)      0.00      0.00      0.00
                                0.00      0.00      0.00
                                0.00      0.00      0.00


     Writing all to output data dir ./out/sic.save/
 
     init_run     :      1.19s CPU      1.28s WALL (       2 calls)
     electrons    :      8.58s CPU      8.92s WALL (       4 calls)
     update_pot   :      0.39s CPU      0.40s WALL (       2 calls)
     forces       :      0.52s CPU      0.53s WALL (       4 calls)
     stress       :      1.06s CPU      1.07s WALL (       4 calls)

     Called by init_run:
     wfcinit      :      0.12s CPU      0.17s WALL (       2 calls)
     wfcinit:atom :      0.00s CPU      0.00s WALL (      56 calls)
     wfcinit:wfcr :      0.11s CPU      0.16s WALL (      56 calls)
     potinit      :      0.18s CPU      0.19s WALL (       2 calls)
     hinit0       :      0.81s CPU      0.82s WALL (       2 calls)

     Called by electrons:
     c_bands      :      5.49s CPU      5.66s WALL (      50 calls)
     sum_band     :      1.45s CPU      1.51s WALL (      50 calls)
     v_of_rho     :      0.35s CPU      0.41s WALL (      54 calls)
     v_h          :      0.02s CPU      0.02s WALL (      54 calls)
     v_xc         :      0.38s CPU      0.44s WALL (      62 calls)
     newd         :      0.44s CPU      0.45s WALL (      54 calls)
     PAW_pot      :      0.96s CPU      0.96s WALL (      56 calls)
     mix_rho      :      0.03s CPU      0.04s WALL (      50 calls)

     Called by c_bands:
     init_us_2    :      0.17s CPU      0.18s WALL (    3136 calls)
     init_us_2:cp :      0.17s CPU      0.17s WALL (    3136 calls)
     cegterg      :      5.10s CPU      5.25s WALL (    1400 calls)

     Called by sum_band:
     sum_band:wei :      0.00s CPU      0.00s WALL (      50 calls)
     sum_band:loo :      0.93s CPU      0.97s WALL (      50 calls)
     sum_band:buf :      0.00s CPU      0.00s WALL (    1400 calls)
     sum_band:ini :      0.08s CPU      0.08s WALL (    1400 calls)
     sum_band:cal :      0.04s CPU      0.04s WALL (    1456 calls)
     sum_band:bec :      0.01s CPU      0.01s WALL (    1456 calls)
     addusdens    :      0.46s CPU      0.47s WALL (      50 calls)
     addusd:skk   :      0.00s CPU      0.00s WALL (     100 calls)
     addusd:dgemm :      0.08s CPU      0.09s WALL (     100 calls)
     addusd:qvan2 :      0.30s CPU      0.30s WALL (     100 calls)

     Called by *egterg:
     cdiaghg      :      0.24s CPU      0.25s WALL (    4487 calls)
     cegterg:over :      0.19s CPU      0.20s WALL (    3143 calls)
     cegterg:upda :      0.04s CPU      0.04s WALL (    3143 calls)
     cegterg:last :      0.07s CPU      0.07s WALL (    2654 calls)
     h_psi        :      4.42s CPU      4.59s WALL (    4599 calls)
     s_psi        :      0.08s CPU      0.09s WALL (    4599 calls)
     g_psi        :      0.01s CPU      0.01s WALL (    3143 calls)

     Called by h_psi:
     h_psi:calbec :      0.13s CPU      0.13s WALL (    4599 calls)
     vloc_psi     :      4.17s CPU      4.34s WALL (    4599 calls)
     add_vuspsi   :      0.09s CPU      0.09s WALL (    4599 calls)

     General routines
     calbec       :      0.18s CPU      0.18s WALL (    6615 calls)
     fft          :      0.27s CPU      0.37s WALL (     796 calls)
     ffts         :      0.01s CPU      0.02s WALL (     104 calls)
     fftw         :      4.68s CPU      4.87s WALL (   69240 calls)
     interpolate  :      0.03s CPU      0.05s WALL (      54 calls)
 
     Parallel routines

     PAW routines
     PAW_pot      :      0.96s CPU      0.96s WALL (      56 calls)
     PAW_symme    :      0.02s CPU      0.02s WALL (     106 calls)
 
     PWSCF        :     11.94s CPU     12.48s WALL

 
   This run was terminated on:  15:28:28  22Mar2023            

=------------------------------------------------------------------------------=
   JOB DONE.
=------------------------------------------------------------------------------=
