#     Step Nr.          Time[fs]        Kin.[a.u.]          Temp[K]            Pot.[a.u.]        Cons Qty[a.u.]        UsedTime[s]
    100010        50005.000000         0.405526979        98.922471348        -2.049216049        -1.643689070         0.005254992
    100020        50010.000000         0.406022335        99.043306079        -2.049711368        -1.643689034         0.005275602
    100030        50015.000000         0.406585219        99.180613669        -2.050274248        -1.643689029         0.005272696
    100040        50020.000000         0.407209069        99.332792875        -2.050898100        -1.643689031         0.005250053
    100050        50025.000000         0.407884371        99.497523106        -2.051573387        -1.643689016         0.005275211
    100060        50030.000000         0.408599896        99.672065195        -2.052288937        -1.643689040         0.005261645
    100070        50035.000000         0.409339959        99.852592739        -2.053028997        -1.643689038         0.005306820
    100080        50040.000000         0.410085270       100.034400788        -2.053774288        -1.643689018         0.005261805
    100090        50045.000000         0.410812777       100.211865677        -2.054501818        -1.643689041         0.005300540
    100100        50050.000000         0.411498150       100.379052389        -2.055187196        -1.643689046         0.005275842
    100110        50055.000000         0.412113126       100.529066971        -2.055802192        -1.643689066         0.005143404
    100120        50060.000000         0.412631234       100.655452053        -2.056320301        -1.643689067         0.005158071
    100130        50065.000000         0.413028267       100.752302493        -2.056717371        -1.643689104         0.005165203
    100140        50070.000000         0.413284939       100.814913871        -2.056974058        -1.643689120         0.005128494
    100150        50075.000000         0.413390249       100.840602718        -2.057079337        -1.643689088         0.005140368
    100160        50080.000000         0.413344043       100.829331431        -2.057033141        -1.643689098         0.005136700
    100170        50085.000000         0.413155244       100.783276657        -2.056844350        -1.643689106         0.005142522
    100180        50090.000000         0.412838338       100.705972125        -2.056527428        -1.643689090         0.005142932
    100190        50095.000000         0.412411218       100.601782172        -2.056100317        -1.643689099         0.005146799
    100200        50100.000000         0.411894028       100.475621313        -2.055583118        -1.643689089         0.005137431
    100210        50105.000000         0.411303973       100.331685763        -2.054993042        -1.643689069         0.005124257
    100220        50110.000000         0.410655831       100.173580969        -2.054344895        -1.643689064         0.005132954
    100230        50115.000000         0.409961110       100.004113741        -2.053650111        -1.643689001         0.005129797
    100240        50120.000000         0.409233989        99.826742943        -2.052922959        -1.643688970         0.005146919
    100250        50125.000000         0.408489249        99.645074478        -2.052178227        -1.643688977         0.005167759
    100260        50130.000000         0.407744590        99.463425556        -2.051433584        -1.643688994         0.005138232
    100270        50135.000000         0.407018395        99.286280637        -2.050707359        -1.643688964         0.005135087
    100280        50140.000000         0.406331207        99.118650968        -2.050020114        -1.643688907         0.005149805
    100290        50145.000000         0.405701369        98.965011189        -2.049390286        -1.643688917         0.005165353
    100300        50150.000000         0.405144248        98.829109511        -2.048833161        -1.643688913         0.005161496
    100310        50155.000000         0.404670697        98.713593609        -2.048359608        -1.643688911         0.005126172
    100320        50160.000000         0.404286431        98.619857439        -2.047975377        -1.643688946         0.005159283
    100330        50165.000000         0.403992205        98.548085207        -2.047681139        -1.643688934         0.005162669
    100340        50170.000000         0.403784389        98.497391378        -2.047473347        -1.643688959         0.005107756
    100350        50175.000000         0.403657160        98.466355687        -2.047346135        -1.643688976         0.005154293
    100360        50180.000000         0.403600602        98.452559258        -2.047289622        -1.643689020         0.005165916
    100370        50185.000000         0.403605516        98.453757937        -2.047294532        -1.643689016         0.005131721
    100380        50190.000000         0.403662425        98.467640209        -2.047351418        -1.643688992         0.005131351
    100390        50195.000000         0.403761776        98.491875461        -2.047450788        -1.643689011         0.005142300
    100400        50200.000000         0.403894237        98.524187347        -2.047583236        -1.643688999         0.005112906
    100410        50205.000000         0.404052981        98.562910537        -2.047742026        -1.643689045         0.005151839
    100420        50210.000000         0.404231425        98.606439592        -2.047920436        -1.643689011         0.005127543
    100430        50215.000000         0.404425322        98.653737827        -2.048114331        -1.643689010         0.005137753
    100440        50220.000000         0.404630268        98.703731410        -2.048319274        -1.643689006         0.005169051
    100450        50225.000000         0.404844918        98.756092284        -2.048533931        -1.643689013         0.005141309
    100460        50230.000000         0.405069413        98.810854598        -2.048758436        -1.643689023         0.005136550
    100470        50235.000000         0.405307692        98.868979278        -2.048996730        -1.643689039         0.004116712
    100480        50240.000000         0.405565701        98.931916986        -2.049254756        -1.643689055         0.004134747
    100490        50245.000000         0.405853314        99.002075939        -2.049542334        -1.643689020         0.004142731
    100500        50250.000000         0.406184448        99.082851226        -2.049873432        -1.643688985         0.004111422
    100510        50255.000000         0.406573612        99.177782368        -2.050262601        -1.643688989         0.004140597
    100520        50260.000000         0.407033887        99.290059815        -2.050722805        -1.643688918         0.004110661
    100530        50265.000000         0.407576930        99.422527306        -2.051265849        -1.643688919         0.004123304
    100540        50270.000000         0.408210503        99.577078291        -2.051899389        -1.643688886         0.004099450
    100550        50275.000000         0.408936855        99.754261391        -2.052625739        -1.643688884         0.004080424
    100560        50280.000000         0.409753634        99.953502843        -2.053442561        -1.643688927         0.004112444
    100570        50285.000000         0.410651943       100.172632404        -2.054340896        -1.643688953         0.004120880
    100580        50290.000000         0.411617016       100.408048210        -2.055306011        -1.643688994         0.004101754
    100590        50295.000000         0.412626025       100.654181241        -2.056315034        -1.643689009         0.004124106
    100600        50300.000000         0.413652225       100.904508131        -2.057341234        -1.643689008         0.004120721
    100610        50305.000000         0.414662617       101.150978720        -2.058351671        -1.643689054         0.004103397
    100620        50310.000000         0.415622800       101.385201427        -2.059311882        -1.643689082         0.004134706
    100630        50315.000000         0.416498421       101.598796639        -2.060187494        -1.643689073         0.004123485
    100640        50320.000000         0.417255293       101.783424684        -2.060944365        -1.643689072         0.004115921
    100650        50325.000000         0.417864055       101.931923321        -2.061553146        -1.643689091         0.004105411
    100660        50330.000000         0.418301619       102.038660904        -2.061990698        -1.643689079         0.004131730
    100670        50335.000000         0.418552948       102.099968829        -2.062242092        -1.643689145         0.004126781
    100680        50340.000000         0.418610030       102.113893313        -2.062299180        -1.643689150         0.004136208
    100690        50345.000000         0.418472725       102.080399728        -2.062161853        -1.643689128         0.004135767
    100700        50350.000000         0.418151837       102.002123653        -2.061840937        -1.643689100         0.004143232
    100710        50355.000000         0.417663184       101.882923734        -2.061352285        -1.643689101         0.004123114
    100720        50360.000000         0.417029788       101.728416070        -2.060718904        -1.643689116         0.004103828
    100730        50365.000000         0.416280839       101.545720571        -2.059969968        -1.643689130         0.004116191
    100740        50370.000000         0.415448672       101.342725375        -2.059137813        -1.643689141         0.004109879
    100750        50375.000000         0.414568797       101.128092656        -2.058257921        -1.643689124         0.004119477
    100760        50380.000000         0.413675837       100.910267868        -2.057364949        -1.643689112         0.004125218
    100770        50385.000000         0.412803117       100.697380291        -2.056492217        -1.643689100         0.004810847
    100780        50390.000000         0.411980324       100.496671845        -2.055669422        -1.643689098         0.004106583
    100790        50395.000000         0.411232293       100.314200444        -2.054921350        -1.643689057         0.004091875
    100800        50400.000000         0.410578915       100.154818329        -2.054267960        -1.643689045         0.004108276
    100810        50405.000000         0.410033006       100.021651637        -2.053722046        -1.643689041         0.004134485
    100820        50410.000000         0.409603334        99.916839398        -2.053292381        -1.643689047         0.004103497
    100830        50415.000000         0.409293999        99.841381524        -2.052983050        -1.643689051         0.004118675
    100840        50420.000000         0.409105776        99.795467344        -2.052794855        -1.643689079         0.004128975
    100850        50425.000000         0.409037671        99.778853937        -2.052726765        -1.643689094         0.004083709
    100860        50430.000000         0.409087704        99.791058753        -2.052776822        -1.643689118         0.004076716
    100870        50435.000000         0.409250240        99.830707235        -2.052939359        -1.643689119         0.004116531
    100880        50440.000000         0.409516636        99.895690537        -2.053205760        -1.643689124         0.004106963
    100890        50445.000000         0.409876148        99.983388539        -2.053565249        -1.643689100         0.004100372
    100900        50450.000000         0.410316784       100.090875161        -2.054005888        -1.643689104         0.004110961
    100910        50455.000000         0.410823427       100.214463407        -2.054512548        -1.643689121         0.004084782
    100920        50460.000000         0.411379758       100.350172464        -2.055068919        -1.643689161         0.004102946
    100930        50465.000000         0.411970925       100.494379066        -2.055660111        -1.643689187         0.004099840
    100940        50470.000000         0.412584260       100.643993481        -2.056273470        -1.643689210         0.004134226
    100950        50475.000000         0.413208149       100.796182047        -2.056897341        -1.643689192         0.004123624
    100960        50480.000000         0.413835134       100.949126204        -2.057524345        -1.643689210         0.004107676
    100970        50485.000000         0.414459079       101.101328412        -2.058148292        -1.643689213         0.004136590
    100980        50490.000000         0.415073842       101.251290967        -2.058763080        -1.643689238         0.004110270
    100990        50495.000000         0.415672891       101.397420547        -2.059362114        -1.643689222         0.004129015
    101000        50500.000000         0.416249164       101.537993886        -2.059938464        -1.643689300         0.004105861
    101010        50505.000000         0.416790715       101.670097488        -2.060480021        -1.643689307         0.004121421
    101020        50510.000000         0.417281252       101.789756871        -2.060970564        -1.643689312         0.004123555
    101030        50515.000000         0.417705950       101.893355991        -2.061395259        -1.643689309         0.004081626
    101040        50520.000000         0.418048860       101.977003871        -2.061738191        -1.643689331         0.004099971
    101050        50525.000000         0.418296717       102.037465062        -2.061986058        -1.643689341         0.004117033
    101060        50530.000000         0.418440281       102.072485366        -2.062129657        -1.643689376         0.004112013
    101070        50535.000000         0.418477837       102.081646590        -2.062167257        -1.643689420         0.004084331
    101080        50540.000000         0.418413114       102.065858488        -2.062102555        -1.643689441         0.004138132
    101090        50545.000000         0.418256489       102.027652137        -2.061945887        -1.643689398         0.004115449
    101100        50550.000000         0.418021098       101.970231706        -2.061710500        -1.643689402         0.004111021
    101110        50555.000000         0.417723741       101.897695877        -2.061413119        -1.643689378         0.004112093
    101120        50560.000000         0.417385289       101.815135287        -2.061074658        -1.643689369         0.004113926
    101130        50565.000000         0.417022466       101.726629964        -2.060711807        -1.643689340         0.004107123
    101140        50570.000000         0.416648915       101.635507448        -2.060338278        -1.643689363         0.004103928
    101150        50575.000000         0.416275101       101.544320888        -2.059964463        -1.643689362         0.004108176
    101160        50580.000000         0.415905697       101.454210146        -2.059595072        -1.643689375         0.004102525
    101170        50585.000000         0.415539069       101.364776498        -2.059228469        -1.643689400         0.004101664
    101180        50590.000000         0.415169463       101.274616570        -2.058858873        -1.643689409         0.004186974
    101190        50595.000000         0.414787118       101.181348966        -2.058476511        -1.643689392         0.004126010
    101200        50600.000000         0.414378752       101.081733930        -2.058068105        -1.643689352         0.004100682
    101210        50605.000000         0.413930468       100.972381518        -2.057619817        -1.643689349         0.004117374
    101220        50610.000000         0.413429031       100.850063137        -2.057118367        -1.643689335         0.004114036
    101230        50615.000000         0.412860967       100.711492057        -2.056550302        -1.643689335         0.004113676
    101240        50620.000000         0.412216545       100.554294508        -2.055905868        -1.643689324         0.011594975
    101250        50625.000000         0.411488019       100.376581221        -2.055177350        -1.643689330         0.004096024
    101260        50630.000000         0.410675588       100.178400287        -2.054364880        -1.643689293         0.004131029
    101270        50635.000000         0.409782299        99.960495405        -2.053471629        -1.643689330         0.004121381
    101280        50640.000000         0.408816811        99.724978354        -2.052506118        -1.643689307         0.004119597
    101290        50645.000000         0.407792255        99.475052617        -2.051481579        -1.643689324         0.004117814
    101300        50650.000000         0.406723618        99.214374062        -2.050412956        -1.643689338         0.004136419
    101310        50655.000000         0.405628127        98.947144847        -2.049317473        -1.643689346         0.004129034
    101320        50660.000000         0.404523219        98.677618304        -2.048212561        -1.643689343         0.004102936
    101330        50665.000000         0.403426324        98.410046566        -2.047115631        -1.643689308         0.004107124
    101340        50670.000000         0.402354968        98.148704797        -2.046044262        -1.643689294         0.004111933
    101350        50675.000000         0.401325485        97.897577223        -2.045014761        -1.643689276         0.004120479
    101360        50680.000000         0.400351255        97.659927919        -2.044040540        -1.643689284         0.004100261
    101370        50685.000000         0.399444987        97.438856900        -2.043134283        -1.643689295         0.004130498
    101380        50690.000000         0.398618074        97.237143160        -2.042307430        -1.643689357         0.004104611
    101390        50695.000000         0.397880327        97.057180416        -2.041569664        -1.643689337         0.004121831
    101400        50700.000000         0.397240251        96.901043200        -2.040929615        -1.643689364         0.004097225
    101410        50705.000000         0.396701337        96.769582885        -2.040390724        -1.643689387         0.004113866
    101420        50710.000000         0.396266053        96.663401488        -2.039955461        -1.643689408         0.004118445
    101430        50715.000000         0.395931157        96.581708586        -2.039620517        -1.643689359         0.004153371
    101440        50720.000000         0.395689574        96.522777823        -2.039378944        -1.643689371         0.004111712
    101450        50725.000000         0.395533455        96.484694974        -2.039222794        -1.643689338         0.004117554
    101460        50730.000000         0.395451146        96.464616683        -2.039140484        -1.643689338         0.004099980
    101470        50735.000000         0.395431797        96.459896933        -2.039121137        -1.643689339         0.004110441
    101480        50740.000000         0.395466982        96.468479626        -2.039156344        -1.643689362         0.004134826
    101490        50745.000000         0.395552830        96.489421075        -2.039242249        -1.643689419         0.004130007
    101500        50750.000000         0.395689258        96.522700646        -2.039378660        -1.643689402         0.004091163
    101510        50755.000000         0.395885511        96.570573907        -2.039574937        -1.643689426         0.004112063
    101520        50760.000000         0.396152804        96.635776047        -2.039842198        -1.643689395         0.004111732
    101530        50765.000000         0.396505789        96.721881840        -2.040195120        -1.643689330         0.004129917
    101540        50770.000000         0.396956754        96.831888127        -2.040646098        -1.643689344         0.004120519
    101550        50775.000000         0.397512198        96.967380813        -2.041201538        -1.643689340         0.004112314
    101560        50780.000000         0.398169578        97.127739164        -2.041858926        -1.643689348         0.004114837
    101570        50785.000000         0.398917085        97.310082681        -2.042606464        -1.643689379         0.004103026
    101580        50790.000000         0.399735251        97.509662527        -2.043424659        -1.643689408         0.004113166
    101590        50795.000000         0.400599743        97.720543014        -2.044289173        -1.643689430         0.004119237
    101600        50800.000000         0.401482870        97.935969039        -2.045172335        -1.643689465         0.004096214
    101610        50805.000000         0.402355964        98.148947729        -2.046045434        -1.643689470         0.004125278
    101620        50810.000000         0.403197405        98.354205117        -2.046886858        -1.643689454         0.004128714
    101630        50815.000000         0.403990795        98.547741227        -2.047680258        -1.643689463         0.004105270
    101640        50820.000000         0.404726922        98.727308879        -2.048416400        -1.643689478         0.004115399
    101650        50825.000000         0.405403267        98.892293565        -2.049092731        -1.643689464         0.004120970
    101660        50830.000000         0.406024664        99.043874269        -2.049714134        -1.643689470         0.004111723
    101670        50835.000000         0.406602325        99.184786475        -2.050291802        -1.643689477         0.004128945
    101680        50840.000000         0.407148269        99.317961497        -2.050837713        -1.643689445         0.004137451
    101690        50845.000000         0.407677166        99.446978418        -2.051366600        -1.643689434         0.004147219
    101700        50850.000000         0.408205163        99.575775577        -2.051894687        -1.643689524         0.004114798
    101710        50855.000000         0.408745990        99.707702751        -2.052435491        -1.643689500         0.004100841
    101720        50860.000000         0.409310151        99.845321625        -2.052999662        -1.643689511         0.004112704
    101730        50865.000000         0.409901634        99.989605258        -2.053591132        -1.643689499         0.004089080
    101740        50870.000000         0.410518826       100.140160466        -2.054208321        -1.643689495         0.004114518
    101750        50875.000000         0.411156930       100.295816784        -2.054846480        -1.643689550         0.004118676
    101760        50880.000000         0.411807196       100.454439838        -2.055496730        -1.643689534         0.004117784
    101770        50885.000000         0.412457579       100.613091268        -2.056147121        -1.643689543         0.004098970
    101780        50890.000000         0.413096121       100.768854550        -2.056785655        -1.643689534         0.004106693
    101790        50895.000000         0.413713121       100.919362900        -2.057402638        -1.643689516         0.004128985
    101800        50900.000000         0.414301215       101.062819934        -2.057990779        -1.643689564         0.004131861
    101810        50905.000000         0.414859899       101.199102831        -2.058549459        -1.643689560         0.004126340
    101820        50910.000000         0.415392173       101.328943463        -2.059081699        -1.643689525         0.004128223
    101830        50915.000000         0.415907697       101.454698065        -2.059597219        -1.643689521         0.004111362
    101840        50920.000000         0.416419516       101.579548810        -2.060109001        -1.643689486         0.004096854
    101850        50925.000000         0.416943797       101.707439724        -2.060633273        -1.643689476         0.004110291
    101860        50930.000000         0.417496167       101.842182447        -2.061185657        -1.643689490         0.004144654
    101870        50935.000000         0.418086209       101.986114593        -2.061775672        -1.643689463         0.004125068
    101880        50940.000000         0.418717657       102.140147375        -2.062407157        -1.643689500         0.004119678
    101890        50945.000000         0.419381751       102.302143527        -2.063071216        -1.643689465         0.004140176
    101900        50950.000000         0.420058285       102.467174137        -2.063747745        -1.643689460         0.004111744
    101910        50955.000000         0.420717442       102.627966052        -2.064406900        -1.643689458         0.004105150
    101920        50960.000000         0.421321155       102.775233164        -2.065010622        -1.643689467         0.004134435
    101930        50965.000000         0.421825275       102.898206008        -2.065514774        -1.643689499         0.004110540
    101940        50970.000000         0.422188240       102.986746016        -2.065877753        -1.643689514         0.004107695
    101950        50975.000000         0.422370349       103.031168943        -2.066059908        -1.643689559         0.004133243
    101960        50980.000000         0.422342478       103.024370237        -2.066032033        -1.643689555         0.004141128
    101970        50985.000000         0.422085586       102.961705171        -2.065775142        -1.643689556         0.004101473
    101980        50990.000000         0.421591449       102.841167456        -2.065281003        -1.643689554         0.004115250
    101990        50995.000000         0.420862503       102.663351696        -2.064552061        -1.643689558         0.004115640
    102000        51000.000000         0.419911357       102.431333363        -2.063600883        -1.643689526         0.004113626
    102010        51005.000000         0.418758127       102.150019373        -2.062447588        -1.643689461         0.004122484
    102020        51010.000000         0.417429999       101.826041641        -2.061119481        -1.643689482         0.004092919
    102030        51015.000000         0.415956448       101.466590205        -2.059645877        -1.643689429         0.004084102
    102040        51020.000000         0.414372191       101.080133362        -2.058061546        -1.643689355         0.004093478
    102050        51025.000000         0.412715898       100.676104460        -2.056405174        -1.643689276         0.004104899
    102060        51030.000000         0.411025334       100.263715696        -2.054714609        -1.643689275         0.004099470
    102070        51035.000000         0.409341387        99.852941256        -2.053030670        -1.643689283         0.004118475
    102080        51040.000000         0.407700945        99.452778967        -2.051390198        -1.643689253         0.004109739
    102090        51045.000000         0.406138651        99.071679920        -2.049827917        -1.643689265         0.004105030
    102100        51050.000000         0.404686247        98.717386875        -2.048375514        -1.643689266         0.004076556
    102110        51055.000000         0.403370382        98.396400384        -2.047059658        -1.643689277         0.004110179
    102120        51060.000000         0.402213115        98.114101878        -2.045902406        -1.643689290         0.004123284
    102130        51065.000000         0.401229780        97.874231253        -2.044919083        -1.643689303         0.004123064
    102140        51070.000000         0.400433822        97.680068966        -2.044123077        -1.643689255         0.004095802
    102150        51075.000000         0.399831254        97.533081159        -2.043520539        -1.643689285         0.004104819
    102160        51080.000000         0.399423805        97.433689650        -2.043113080        -1.643689276         0.004122132
    102170        51085.000000         0.399210055        97.381548583        -2.042899345        -1.643689290         0.004103207
    102180        51090.000000         0.399184573        97.375332495        -2.042873860        -1.643689287         0.004124688
    102190        51095.000000         0.399338035        97.412767514        -2.043027302        -1.643689266         0.004104669
    102200        51100.000000         0.399656070        97.490347353        -2.043345309        -1.643689240         0.004109739
    102210        51105.000000         0.400120284        97.603585754        -2.043809523        -1.643689239         0.004083940
    102220        51110.000000         0.400706818        97.746662280        -2.044396056        -1.643689238         0.004105751
    102230        51115.000000         0.401387997        97.912826241        -2.045077263        -1.643689265         0.004120279
    102240        51120.000000         0.402131352        98.094156947        -2.045820625        -1.643689273         0.004148493
    102250        51125.000000         0.402902843        98.282351070        -2.046592137        -1.643689294         0.004130649
    102260        51130.000000         0.403668879        98.469214355        -2.047358237        -1.643689358         0.004129617
    102270        51135.000000         0.404400596        98.647706215        -2.048089990        -1.643689394         0.004115781
    102280        51140.000000         0.405072115        98.811513600        -2.048761524        -1.643689409         0.004113548