 DBCSR| CPU Multiplication driver                                           BLAS (U)
 DBCSR| Multrec recursion limit                                              512 (U)
 DBCSR| Multiplication stack size                                           1000 (D)
 DBCSR| Maximum elements for images                                    UNLIMITED (U)
 DBCSR| Multiplicative factor virtual images                                   1 (U)
 DBCSR| Use multiplication densification                                       T (D)
 DBCSR| Multiplication size stacks                                             3 (U)
 DBCSR| Use memory pool for CPU allocation                                     F (U)
 DBCSR| OMP: Current number of threads                                         1
 DBCSR| OMP: Max number of threads                                             1
 DBCSR| Split modifier for TAS multiplication algorithm                  1.0E+00 (U)


  **** **** ******  **  PROGRAM STARTED AT               2023-04-26 11:32:38.402
 ***** ** ***  *** **   PROGRAM STARTED ON                            eu-a2p-345
 **    ****   ******    PROGRAM STARTED BY                             jbachmann
 ***** **    ** ** **   PROGRAM PROCESS ID                                 13454
  **** **  *******  **  PROGRAM STARTED IN /cluster/home/jbachmann/Molecular-and
                                           -Materials-Modelling-FS2023/exercise9
                                           /100_bulk

 CP2K| version string:                 CP2K version 2023.1 (Development Version)
 CP2K| source code revision number:                                  git:dc34ec9
 CP2K| cp2kflags: omp libint fftw3 libxc max_contr=4 spglib libvori libbqb      
 CP2K| is freely available from                            https://www.cp2k.org/
 CP2K| Program compiled at                         Mon Mar 27 23:22:21 CEST 2023
 CP2K| Program compiled on                                           eu-g5-025-4
 CP2K| Program compiled for                              Linux-gnu-x86_64-static
 CP2K| Data directory path      /cluster/apps/nss/gcc-6.3.0/cp2k/8.2/x86_64/data
 CP2K| Input file name                                   thermalization_bulk.inp

 GLOBAL| Force Environment number                                              1
 GLOBAL| Basis set file name                                           BASIS_SET
 GLOBAL| Potential file name                                           POTENTIAL
 GLOBAL| MM Potential file name                                     MM_POTENTIAL
 GLOBAL| Coordinate file name                                    crystal_6x6.xyz
 GLOBAL| Method name                                                        CP2K
 GLOBAL| Project name                                    thermalization_bulk_100
 GLOBAL| Run type                                                             MD
 GLOBAL| FFT library                                                       FFTW3
 GLOBAL| Diagonalization library                                       ScaLAPACK
 GLOBAL| DGEMM library                                                      BLAS
 GLOBAL| Orthonormality check for eigenvectors                          DISABLED
 GLOBAL| Matrix multiplication library                                 ScaLAPACK
 GLOBAL| All-to-all communication in single precision                          F
 GLOBAL| FFTs using library dependent lengths                                  F
 GLOBAL| Grid backend                                                       AUTO
 GLOBAL| Global print level                                               SILENT
 GLOBAL| MPI I/O enabled                                                       T
 GLOBAL| Total number of message passing processes                             1
 GLOBAL| Number of threads for this process                                    1
 GLOBAL| This output is from process                                           0
 GLOBAL| Stack size for threads created by OpenMP (OMP_STACKSIZE)        default
 GLOBAL| CPU model name                          AMD EPYC 7763 64-Core Processor

 MEMORY| system memory details [Kb]
 MEMORY|                        rank 0           min           max       average
 MEMORY| MemTotal            261505600     261505600     261505600     261505600
 MEMORY| MemFree             229753560     229753560     229753560     229753560
 MEMORY| Buffers                259260        259260        259260        259260
 MEMORY| Cached               16336240      16336240      16336240      16336240
 MEMORY| Slab                  1741460       1741460       1741460       1741460
 MEMORY| SReclaimable           630072        630072        630072        630072
 MEMORY| MemLikelyFree       246979132     246979132     246979132     246979132



                      ************* ******** ***********   
                     ************* **********************  
                     ****     **** ****      ***********   
                     ******** ****  *******     ****       
                     *******  ****   *******   ****        
                     ****     ****       ****  ****        
                     ****     **** **********  ****        
                      ****     **** ********    ****       
                     FRONTIERS IN SIMULATION TECHNOLOGY    
                                                           
                        C.J. Mundy, S. Balasubramanian,    
                     Ken Bagchi, J. Hutter, Ari Seitsonen  
                      IFW Kuo, T. Laino, J. VandeVondele   
                                 Version 1.0               

                                                           


 GENERATE|  Preliminary Number of Bonds generated:                             0
 GENERATE|  Achieved consistency in connectivity generation.

 FORCEFIELD| WARNING: A non Critical ForceField parameter is missing! CP2K GOES!
 FORCEFIELD| Non critical parameters are:Urey-Bradley,Torsions,Impropers, Opbends and 1-4
 FORCEFIELD| All missing parameters will not contribute to the potential energy!
 FORCEFIELD| Activate the print key FF_INFO to have a list of missing parameters


 -------------------------------------------------------------------------------
 -                                                                             -
 -                                DBCSR STATISTICS                             -
 -                                                                             -
 -------------------------------------------------------------------------------
 COUNTER                                    TOTAL       BLAS       SMM       ACC
 flops inhomo. stacks                           0       0.0%      0.0%      0.0%
 flops total                         0.000000E+00       0.0%      0.0%      0.0%
 flops max/rank                      0.000000E+00       0.0%      0.0%      0.0%
 matmuls inhomo. stacks                         0       0.0%      0.0%      0.0%
 matmuls total                                  0       0.0%      0.0%      0.0%
 number of processed stacks                     0       0.0%      0.0%      0.0%
 average stack size                                     0.0       0.0       0.0
 marketing flops                     0.000000E+00
 -------------------------------------------------------------------------------

 -------------------------------------------------------------------------------
 -                                                                             -
 -                                DBM STATISTICS                               -
 -                                                                             -
 -------------------------------------------------------------------------------
    M  x    N  x    K                                          COUNT     PERCENT
 -------------------------------------------------------------------------------

 -------------------------------------------------------------------------------
 -                                                                             -
 -                                GRID STATISTICS                              -
 -                                                                             -
 -------------------------------------------------------------------------------
 LP    KERNEL             BACKEND                              COUNT     PERCENT
 -------------------------------------------------------------------------------

 MEMORY| Estimated peak process memory [MiB]                                  91

 -------------------------------------------------------------------------------
 -                                                                             -
 -                           R E F E R E N C E S                               -
 -                                                                             -
 -------------------------------------------------------------------------------
 
 CP2K version 2023.1 (Development Version), the CP2K developers group (2023).
 CP2K is freely available from https://www.cp2k.org/ .

 Schuett, Ole; Messmer, Peter; Hutter, Juerg; VandeVondele, Joost. 
 Electronic Structure Calculations on Graphics Processing Units, John
 Wiley & Sons, Ltd, 173-190 (2016). 
 GPU-Accelerated Sparse Matrix-Matrix Multiplication for
 Linear Scaling Density Functional Theory.
 https://doi.org/10.1002/9781118670712.ch8

 Borstnik, U; VandeVondele, J; Weber, V; Hutter, J. 
 PARALLEL COMPUTING, 40 (5-6), 47-58 (2014). 
 Sparse matrix multiplication: The distributed block-compressed sparse
 row library.
 https://doi.org/10.1016/j.parco.2014.03.012

 Hutter, J; Iannuzzi, M; Schiffmann, F; VandeVondele, J. 
 WIREs Comput Mol Sci., 4 (1), 15-25 (2014). 
 CP2K: atomistic simulations of condensed matter systems.
 https://doi.org/10.1002/wcms.1159

 Bussi, G; Donadio, D; Parrinello, M. 
 JOURNAL OF CHEMICAL PHYSICS, 126 (1), 014101 (2007). 
 Canonical sampling through velocity rescaling.
 https://doi.org/10.1063/1.2408420

 Frigo, M; Johnson, SG. 
 PROCEEDINGS OF THE IEEE, 93 (2), 216-231 (2005). 
 The design and implementation of FFTW3.
 https://doi.org/10.1109/JPROC.2004.840301


 -------------------------------------------------------------------------------
 -                                                                             -
 -                                T I M I N G                                  -
 -                                                                             -
 -------------------------------------------------------------------------------
 SUBROUTINE                       CALLS  ASD         SELF TIME        TOTAL TIME
                                MAXIMUM       AVERAGE  MAXIMUM  AVERAGE  MAXIMUM
 CP2K                                 1  1.0    0.064    0.064  508.240  508.240
 qs_mol_dyn_low                       1  2.0    1.388    1.388  508.058  508.058
 velocity_verlet                 100000  3.0    7.327    7.327  495.401  495.401
 fist_calc_energy_force          100001  4.0    1.543    1.543  405.017  405.017
 force_nonbond                   100001  5.0  391.400  391.400  391.400  391.400
 csvr_particles                  200000  4.0   73.391   73.391   73.562   73.562
 md_output                       100000  3.0    0.153    0.153   10.420   10.420
 -------------------------------------------------------------------------------

 The number of warnings for this run is : 0
 
 -------------------------------------------------------------------------------
  **** **** ******  **  PROGRAM ENDED AT                 2023-04-26 11:41:07.082
 ***** ** ***  *** **   PROGRAM RAN ON                                eu-a2p-345
 **    ****   ******    PROGRAM RAN BY                                 jbachmann
 ***** **    ** ** **   PROGRAM PROCESS ID                                 13454
  **** **  *******  **  PROGRAM STOPPED IN /cluster/home/jbachmann/Molecular-and
                                           -Materials-Modelling-FS2023/exercise9
                                           /100_bulk
