#     Step Nr.          Time[fs]        Kin.[a.u.]          Temp[K]            Pot.[a.u.]        Cons Qty[a.u.]        UsedTime[s]
         0            0.000000         0.409944246       100.000000000        -2.429146990        -2.019202744         0.000000000
        10            5.000000         0.408946080        99.756511793        -2.428381166        -2.019202744         0.006088921
        20           10.000000         0.407358094        99.369145265        -2.426085258        -2.019202751         0.006131562
        30           15.000000         0.403345084        98.390229310        -2.422273346        -2.019202752         0.006128987
        40           20.000000         0.397639176        96.998355217        -2.416984749        -2.019202757         0.006108497
        50           25.000000         0.392191461        95.669463603        -2.410245739        -2.019202758         0.006088861
        60           30.000000         0.383450898        93.537329008        -2.402084864        -2.019202781         0.006040160
        70           35.000000         0.372324359        90.823169834        -2.392554698        -2.019202801         0.006053534
        80           40.000000         0.360992641        88.058960296        -2.381723041        -2.019202767         0.006030833
        90           45.000000         0.349072410        85.151191451        -2.369650147        -2.019202728         0.006024280
       100           50.000000         0.337872902        82.419232610        -2.356390830        -2.019202656         0.006040320
       110           55.000000         0.323761476        78.976953234        -2.342052164        -2.019202574         0.006019619
       120           60.000000         0.308331252        75.212972166        -2.326794073        -2.019202484         0.006021645
       130           65.000000         0.292549793        71.363312415        -2.310768673        -2.019202382         0.006025502
       140           70.000000         0.276927454        67.552467605        -2.294121288        -2.019202277         0.006050539
       150           75.000000         0.259879981        63.393981959        -2.277054157        -2.019202151         0.006027807
       160           80.000000         0.242409220        59.132241061        -2.259810644        -2.019202018         0.006007288
       170           85.000000         0.226122019        55.159212660        -2.242600069        -2.019201866         0.005944279
       180           90.000000         0.208695283        50.908211363        -2.225690048        -2.019201713         0.006425816
       190           95.000000         0.192788210        47.027909604        -2.209329044        -2.019201564         0.005977332
       200          100.000000         0.178048894        43.432465593        -2.193752296        -2.019201418         0.006008389
       210          105.000000         0.164541126        40.137439978        -2.179162740        -2.019201284         0.006000585
       220          110.000000         0.150697738        36.760544622        -2.165813928        -2.019201162         0.005975457
       230          115.000000         0.139716959        34.081941763        -2.153900458        -2.019201066         0.006396972
       240          120.000000         0.130252495        31.773221973        -2.143532989        -2.019200996         0.006318633
       250          125.000000         0.122126606        29.791028159        -2.134838447        -2.019200962         0.006233113
       260          130.000000         0.116050220        28.308781298        -2.127876812        -2.019200954         0.006126792
       270          135.000000         0.111804328        27.273056964        -2.122651020        -2.019200975         0.005973063
       280          140.000000         0.108802666        26.540844675        -2.119141438        -2.019201019         0.006026363
       290          145.000000         0.107292440        26.172446898        -2.117277876        -2.019201084         0.005981489
       300          150.000000         0.107108022        26.127460713        -2.116949676        -2.019201171         0.005986188
       310          155.000000         0.108262663        26.409118917        -2.118016675        -2.019201284         0.005989535
       320          160.000000         0.111786440        27.268693496        -2.120320414        -2.019201393         0.005983735
       330          165.000000         0.115707969        28.225293996        -2.123685010        -2.019201508         0.005987440
       340          170.000000         0.121002397        29.516793551        -2.127918377        -2.019201627         0.005953196
       350          175.000000         0.126681963        30.902241967        -2.132841804        -2.019201736         0.005969797
       360          180.000000         0.132938514        32.428437619        -2.138258101        -2.019201833         0.004778747
       370          185.000000         0.139055211        33.920517839        -2.144000043        -2.019201941         0.004777186
       380          190.000000         0.145493452        35.491034010        -2.149903117        -2.019202024         0.004781122
       390          195.000000         0.151465810        36.947904833        -2.155820464        -2.019202093         0.004783557
       400          200.000000         0.157692947        38.466925388        -2.161629705        -2.019202171         0.004767867
       410          205.000000         0.163569873        39.900516910        -2.167224689        -2.019202212         0.004793555
       420          210.000000         0.170405632        41.568001787        -2.172529755        -2.019202235         0.004807200
       430          215.000000         0.176490585        43.052338509        -2.177474014        -2.019202269         0.004782314
       440          220.000000         0.181998860        44.396003024        -2.181989250        -2.019202299         0.004798124
       450          225.000000         0.186405984        45.471057616        -2.186030939        -2.019202326         0.004800208
       460          230.000000         0.189375838        46.195510792        -2.189568874        -2.019202321         0.004794056
       470          235.000000         0.193002672        47.080224523        -2.192600230        -2.019202289         0.004761475
       480          240.000000         0.196612925        47.960894013        -2.195125977        -2.019202281         0.004801380
       490          245.000000         0.200036225        48.795958724        -2.197157493        -2.019202270         0.004796921
       500          250.000000         0.202651680        49.433961298        -2.198708873        -2.019202258         0.004805177
       510          255.000000         0.204045836        49.774045574        -2.199801275        -2.019202232         0.004799256
       520          260.000000         0.204866200        49.974161645        -2.200466976        -2.019202197         0.004812460
       530          265.000000         0.206580585        50.392361045        -2.200744240        -2.019202153         0.004826066
       540          270.000000         0.207123998        50.524918870        -2.200673063        -2.019202121         0.004823021
       550          275.000000         0.206905115        50.471525551        -2.200297428        -2.019202117         0.004812902
       560          280.000000         0.207122668        50.524594572        -2.199667027        -2.019202075         0.004818833
       570          285.000000         0.207355114        50.581296309        -2.198830485        -2.019202048         0.004806219
       580          290.000000         0.206757518        50.435521317        -2.197835803        -2.019201998         0.004811780
       590          295.000000         0.204645354        49.920289485        -2.196734930        -2.019201986         0.004816358
       600          300.000000         0.204657052        49.923143060        -2.195580129        -2.019201946         0.004803914
       610          305.000000         0.204028630        49.769848402        -2.194415297        -2.019201916         0.004787573
       620          310.000000         0.203786531        49.710791798        -2.193283573        -2.019201865         0.004841546
       630          315.000000         0.203465965        49.632594471        -2.192225832        -2.019201848         0.004856554
       640          320.000000         0.203270151        49.584828376        -2.191275488        -2.019201815         0.004784448
       650          325.000000         0.202007725        49.276877738        -2.190465233        -2.019201811         0.004813301
       660          330.000000         0.201967391        49.267038884        -2.189823892        -2.019201791         0.004797834
       670          335.000000         0.201747939        49.213506752        -2.189371213        -2.019201780         0.004803665
       680          340.000000         0.201479792        49.148096030        -2.189125721        -2.019201790         0.004804466
       690          345.000000         0.201621794        49.182735445        -2.189102405        -2.019201776         0.004822160
       700          350.000000         0.202461367        49.387537070        -2.189308340        -2.019201783         0.004779108
       710          355.000000         0.203923833        49.744284687        -2.189744431        -2.019201782         0.004799987
       720          360.000000         0.205128491        50.038143731        -2.190405157        -2.019201789         0.004792342
       730          365.000000         0.206790443        50.443552975        -2.191283429        -2.019201784         0.004812861
       740          370.000000         0.207372366        50.585504683        -2.192365625        -2.019201790         0.004807751
       750          375.000000         0.208782493        50.929485003        -2.193639483        -2.019201793         0.004826397
       760          380.000000         0.210854087        51.434820500        -2.195093388        -2.019201818         0.004816609
       770          385.000000         0.213729320        52.136192132        -2.196710105        -2.019201825         0.004798885
       780          390.000000         0.215968977        52.682524378        -2.198465361        -2.019201837         0.004806911
       790          395.000000         0.218897155        53.396811105        -2.200336843        -2.019201853         0.004804145
       800          400.000000         0.221258784        53.972896586        -2.202302088        -2.019201860         0.004816879
       810          405.000000         0.224076099        54.660140046        -2.204332738        -2.019201874         0.004807872
       820          410.000000         0.226246112        55.189483417        -2.206405163        -2.019201865         0.004830745
       830          415.000000         0.229359559        55.948964178        -2.208489962        -2.019201878         0.004782194
       840          420.000000         0.233587624        56.980339734        -2.210562079        -2.019201909         0.004826147
       850          425.000000         0.234934531        57.308898150        -2.212588519        -2.019201920         0.004800326
       860          430.000000         0.236440313        57.676212136        -2.214538264        -2.019201949         0.004807210
       870          435.000000         0.239731641        58.479084114        -2.216392032        -2.019201942         0.004802552
       880          440.000000         0.241949884        59.020192743        -2.218122287        -2.019201947         0.004810457
       890          445.000000         0.243977587        59.514821742        -2.219705434        -2.019201924         0.004800819
       900          450.000000         0.246424382        60.111682052        -2.221120168        -2.019201936         0.004784708
       910          455.000000         0.247667240        60.414859382        -2.222349675        -2.019201962         0.004790138
       920          460.000000         0.248712922        60.669938578        -2.223381912        -2.019201945         0.004808594
       930          465.000000         0.251424859        61.331476491        -2.224206772        -2.019201940         0.004826707
       940          470.000000         0.252626909        61.624699351        -2.224817017        -2.019201927         0.004788476
       950          475.000000         0.252917652        61.695621775        -2.225206529        -2.019201908         0.004813853
       960          480.000000         0.253809378        61.913145661        -2.225378508        -2.019201910         0.004806931
       970          485.000000         0.254771211        62.147770958        -2.225333273        -2.019201887         0.004813491
       980          490.000000         0.254659266        62.120463565        -2.225072064        -2.019201892         0.004796430
       990          495.000000         0.255336106        62.285568855        -2.224601870        -2.019201881         0.004806709
      1000          500.000000         0.255330746        62.284261471        -2.223927915        -2.019201894         0.004781493
      1010          505.000000         0.254638119        62.115304930        -2.223061452        -2.019201907         0.004805108
      1020          510.000000         0.254579733        62.101062519        -2.222014882        -2.019201885         0.004792913
      1030          515.000000         0.255172592        62.245682125        -2.220797609        -2.019201848         0.004762617
      1040          520.000000         0.253648362        61.873867940        -2.219422981        -2.019201847         0.004794908
      1050          525.000000         0.251691003        61.396398428        -2.217914348        -2.019201833         0.004781212
      1060          530.000000         0.249636583        60.895252414        -2.216298899        -2.019201816         0.004825486
      1070          535.000000         0.248226388        60.551255433        -2.214599114        -2.019201794         0.004789619
      1080          540.000000         0.247425313        60.355844916        -2.212836219        -2.019201801         0.004788245
      1090          545.000000         0.245901589        59.984154256        -2.211034096        -2.019201769         0.004760091
      1100          550.000000         0.243292941        59.347812050        -2.209218995        -2.019201748         0.004797935
      1110          555.000000         0.241895306        59.006879049        -2.207416565        -2.019201739         0.004806540
      1120          560.000000         0.239373417        58.391700514        -2.205653231        -2.019201739         0.004792192
      1130          565.000000         0.236694824        57.738296319        -2.203955414        -2.019201739         0.004793495
      1140          570.000000         0.234692620        57.249887477        -2.202347660        -2.019201750         0.004788827
      1150          575.000000         0.232966285        56.828772930        -2.200847146        -2.019201731         0.004762306
      1160          580.000000         0.232409311        56.692907191        -2.199473631        -2.019201730         0.004805357
      1170          585.000000         0.231559260        56.485549418        -2.198234420        -2.019201748         0.004806990
      1180          590.000000         0.230324382        56.184318704        -2.197145770        -2.019201745         0.004794287
      1190          595.000000         0.230637736        56.260757018        -2.196216544        -2.019201738         0.004773566
      1200          600.000000         0.229729471        56.039198822        -2.195448582        -2.019201720         0.004801339
      1210          605.000000         0.229336061        55.943231992        -2.194847320        -2.019201728         0.004797884
      1220          610.000000         0.229167369        55.902082080        -2.194412955        -2.019201704         0.004833341
      1230          615.000000         0.228812375        55.815486310        -2.194143525        -2.019201714         0.004790579
      1240          620.000000         0.229474091        55.976902540        -2.194035862        -2.019201730         0.004802361
      1250          625.000000         0.229513217        55.986446841        -2.194080989        -2.019201787         0.004827037
      1260          630.000000         0.230279995        56.173491290        -2.194270768        -2.019201796         0.004802722
      1270          635.000000         0.231020538        56.354136000        -2.194596304        -2.019201801         0.004838239
      1280          640.000000         0.231766334        56.536062229        -2.195046514        -2.019201809         0.004798885
      1290          645.000000         0.232564485        56.730759657        -2.195613675        -2.019201815         0.004814735
      1300          650.000000         0.233914315        57.060031301        -2.196288586        -2.019201813         0.004809074
      1310          655.000000         0.235440794        57.432393752        -2.197060995        -2.019201829         0.004777755
      1320          660.000000         0.236497674        57.690204550        -2.197917855        -2.019201829         0.004788125
      1330          665.000000         0.237459872        57.924918752        -2.198848133        -2.019201831         0.004803344
      1340          670.000000         0.239411557        58.401004454        -2.199836511        -2.019201834         0.004788484
      1350          675.000000         0.241848787        58.995531535        -2.200862674        -2.019201870         0.004808103
      1360          680.000000         0.243873897        59.489528042        -2.201902225        -2.019201881         0.004796701
      1370          685.000000         0.245014901        59.767859582        -2.202930782        -2.019201852         0.004792813
      1380          690.000000         0.245869985        59.976445010        -2.203923251        -2.019201882         0.004802901
      1390          695.000000         0.248020702        60.501081359        -2.204860724        -2.019201903         0.004783215
      1400          700.000000         0.250322949        61.062681390        -2.205721883        -2.019201941         0.004787474
      1410          705.000000         0.251251403        61.289164479        -2.206483494        -2.019201968         0.004812070
      1420          710.000000         0.252323397        61.550662026        -2.207128932        -2.019201962         0.004820957
      1430          715.000000         0.253384231        61.809437127        -2.207646626        -2.019201977         0.004799647
      1440          720.000000         0.253985570        61.956125102        -2.208026823        -2.019201951         0.004798374
      1450          725.000000         0.253863936        61.926454229        -2.208266936        -2.019201933         0.004783497
      1460          730.000000         0.253834430        61.919256791        -2.208369432        -2.019201938         0.004783597
      1470          735.000000         0.254815578        62.158593585        -2.208339034        -2.019201903         0.004788425
      1480          740.000000         0.254331581        62.040529401        -2.208179788        -2.019201893         0.004791321
      1490          745.000000         0.253879923        61.930353913        -2.207900874        -2.019201886         0.004808875
      1500          750.000000         0.253589543        61.859519901        -2.207511277        -2.019201883         0.004778465
      1510          755.000000         0.254493931        62.080132532        -2.207017084        -2.019201874         0.004782074
      1520          760.000000         0.253442262        61.823593042        -2.206423185        -2.019201834         0.004795128
      1530          765.000000         0.251744838        61.409530660        -2.205740656        -2.019201848         0.004806269
      1540          770.000000         0.250777390        61.173535769        -2.204983399        -2.019201860         0.004762546
      1550          775.000000         0.251291010        61.298826018        -2.204159941        -2.019201853         0.004769660
      1560          780.000000         0.250776305        61.173271120        -2.203273674        -2.019201835         0.004798024
      1570          785.000000         0.250803168        61.179823832        -2.202334706        -2.019201851         0.004765472
      1580          790.000000         0.250868298        61.195711518        -2.201353341        -2.019201853         0.004770732
      1590          795.000000         0.249941112        60.969537845        -2.200341382        -2.019201849         0.004819212
      1600          800.000000         0.248964320        60.731263446        -2.199316117        -2.019201854         0.004792322
      1610          805.000000         0.248222523        60.550312589        -2.198295052        -2.019201860         0.004785180
      1620          810.000000         0.247158379        60.290730100        -2.197295175        -2.019201831         0.004780451
      1630          815.000000         0.245761378        59.949951819        -2.196334973        -2.019201799         0.004763168
      1640          820.000000         0.244535179        59.650838270        -2.195431312        -2.019201768         0.004807001
      1650          825.000000         0.244277058        59.587873268        -2.194598477        -2.019201770         0.004804155
      1660          830.000000         0.244991134        59.762061843        -2.193841147        -2.019201765         0.004785951
      1670          835.000000         0.245470162        59.878913843        -2.193159864        -2.019201755         0.004797994
      1680          840.000000         0.245317619        59.841703201        -2.192552217        -2.019201761         0.004775320
      1690          845.000000         0.245472386        59.879456352        -2.192015095        -2.019201760         0.004803544
      1700          850.000000         0.245255783        59.826619221        -2.191544468        -2.019201757         0.004781733
      1710          855.000000         0.245877377        59.978248129        -2.191135664        -2.019201778         0.004777093
      1720          860.000000         0.245155850        59.802242045        -2.190782303        -2.019201808         0.004810847
      1730          865.000000         0.244852827        59.728323959        -2.190480658        -2.019201809         0.004789528
      1740          870.000000         0.244678126        59.685708121        -2.190228434        -2.019201808         0.004790830
      1750          875.000000         0.245278600        59.832184991        -2.190021424        -2.019201798         0.004792965
      1760          880.000000         0.246684477        60.175128513        -2.189854443        -2.019201797         0.004812090
      1770          885.000000         0.246394648        60.104428870        -2.189722334        -2.019201808         0.004776012
      1780          890.000000         0.245713168        59.938191697        -2.189626907        -2.019201811         0.004769861
      1790          895.000000         0.247001326        60.252419327        -2.189571362        -2.019201831         0.004777894
      1800          900.000000         0.246628567        60.161490119        -2.189552667        -2.019201839         0.004800167
      1810          905.000000         0.247634908        60.406972521        -2.189571759        -2.019201856         0.004788276
      1820          910.000000         0.247798795        60.446950308        -2.189625975        -2.019201851         0.004825996
      1830          915.000000         0.248958440        60.729829095        -2.189713629        -2.019201842         0.004777164
      1840          920.000000         0.250239519        61.042329872        -2.189828145        -2.019201816         0.004775902
      1850          925.000000         0.249391686        60.835513267        -2.189959598        -2.019201779         0.004783707
      1860          930.000000         0.249163539        60.779859988        -2.190104676        -2.019201805         0.004796960
      1870          935.000000         0.251238798        61.286089702        -2.190257278        -2.019201825         0.004803513
      1880          940.000000         0.251585938        61.370769504        -2.190403316        -2.019201823         0.004825074
      1890          945.000000         0.254507727        62.083497857        -2.190530046        -2.019201824         0.004781402
      1900          950.000000         0.254484462        62.077822604        -2.190619147        -2.019201841         0.004781573
      1910          955.000000         0.255666438        62.366148619        -2.190663259        -2.019201856         0.004783526
      1920          960.000000         0.255928963        62.430187744        -2.190654962        -2.019201857         0.004787665
      1930          965.000000         0.256720453        62.623260497        -2.190589569        -2.019201851         0.004769890
      1940          970.000000         0.257256086        62.753920447        -2.190464693        -2.019201840         0.004813112
      1950          975.000000         0.257322745        62.770180851        -2.190280982        -2.019201843         0.004780230
      1960          980.000000         0.256355868        62.534325180        -2.190041107        -2.019201787         0.004788896
      1970          985.000000         0.256124924        62.477989694        -2.189751392        -2.019201775         0.004810647
      1980          990.000000         0.256013563        62.450824929        -2.189415425        -2.019201778         0.004815347
      1990          995.000000         0.256860575        62.657441214        -2.189034447        -2.019201768         0.004821648
      2000         1000.000000         0.257081330        62.711291292        -2.188607910        -2.019201760         0.004787213
      2010         1005.000000         0.257382450        62.784745087        -2.188135417        -2.019201754         0.004794697
      2020         1010.000000         0.256851642        62.655262155        -2.187619373        -2.019201755         0.004814405
      2030         1015.000000         0.257027124        62.698068403        -2.187064505        -2.019201768         0.004800868
      2040         1020.000000         0.256465444        62.561054746        -2.186478557        -2.019201756         0.004820026
      2050         1025.000000         0.255675107        62.368263433        -2.185872169        -2.019201731         0.004777324
      2060         1030.000000         0.255222890        62.257951547        -2.185260846        -2.019201713         0.004802422
      2070         1035.000000         0.254563603        62.097127831        -2.184660307        -2.019201689         0.004806990
      2080         1040.000000         0.252989823        61.713226916        -2.184089479        -2.019201697         0.004800157
      2090         1045.000000         0.252936396        61.700194092        -2.183568975        -2.019201710         0.004792883
      2100         1050.000000         0.252917587        61.695606112        -2.183112827        -2.019201707         0.004766725
      2110         1055.000000         0.252253707        61.533662115        -2.182735554        -2.019201671         0.004798885
      2120         1060.000000         0.252590467        61.615809736        -2.182450676        -2.019201662         0.004800108
      2130         1065.000000         0.253323578        61.794641648        -2.182267522        -2.019201637         0.004802893
      2140         1070.000000         0.252973625        61.709275735        -2.182189725        -2.019201690         0.004788836
      2150         1075.000000         0.254210081        62.010891299        -2.182221494        -2.019201649         0.004808804
      2160         1080.000000         0.255637392        62.359063418        -2.182360823        -2.019201662         0.004795639
      2170         1085.000000         0.255244206        62.263151349        -2.182599183        -2.019201651         0.004782143
      2180         1090.000000         0.255471956        62.318707575        -2.182932029        -2.019201653         0.004790289
      2190         1095.000000         0.256665287        62.609803549        -2.183352439        -2.019201665         0.004784197
      2200         1100.000000         0.257983266        62.931305453        -2.183846127        -2.019201698         0.004819764
      2210         1105.000000         0.259960859        63.413710933        -2.184396820        -2.019201694         0.004792764
      2220         1110.000000         0.261427629        63.771508413        -2.184986495        -2.019201716         0.004766104
      2230         1115.000000         0.261957158        63.900679188        -2.185595229        -2.019201690         0.004793485
      2240         1120.000000         0.263457147        64.266580116        -2.186206245        -2.019201711         0.004810869
      2250         1125.000000         0.263904660        64.375744313        -2.186801740        -2.019201722         0.004802862
      2260         1130.000000         0.264764328        64.585447965        -2.187370778        -2.019201755         0.004809906
      2270         1135.000000         0.264912210        64.621521716        -2.187901092        -2.019201754         0.004811429