      38
 i =        1, E =        -0.0514168381
 Ar        15.8880675907        7.5207065800       13.8168765410
 Ar         2.8473460293       11.9899002027       11.4577288503
 Ar         5.3024443266        7.3696826931        4.5879993689
 Ar        13.3652198057        4.6438169353        6.0631890361
 Ar         9.3520054038       12.0085435136       16.8247797074
 Ar         7.8792913580        5.3661598694       12.3414523623
 Ar         4.3310511865       13.8104514070        7.9645662703
 Ar        12.5580042660        8.0660071896        3.7452868358
 Ar         8.6279828801       15.3563898734       14.5169633650
 Ar        15.7900914902       11.7772615993       13.6000388685
 Ar         8.7178013970        9.4007066753        3.1735853953
 Ar         5.5280012127       11.5988340276        4.6748178909
 Ar         5.7929252383       14.9200854592       11.6106807857
 Ar        12.7036114175       14.1476055659       15.4344730462
 Ar        15.4616153855        8.2004065644        6.6454985578
 Ar        17.1527326760        9.4864837130       10.2213876419
 Ar        13.2822091221       13.9562684203       11.1807503246
 Ar        11.2999936608       11.6247151382        5.1847614696
 Ar         9.3533604573       15.3383315816       10.4834007973
 Ar         8.1485747411       13.8860724853        6.7013328067
 Ar        14.3671938063       11.6597116728        7.9019776136
 Ar         6.2490166471       11.9771689727       14.0995392561
 Ar         9.3957017125        6.2873923967        5.6192439758
 Ar         4.0114256858        9.7017588507        8.0077885896
 Ar        12.5547624621        9.8368017595       15.3715927391
 Ar        14.5471204796        6.1616711587        9.9121521426
 Ar         5.5683993306        8.6317154505       11.8515475791
 Ar         6.5883198675        6.2854013711        8.5720418148
 Ar        10.5486953371        4.9826579139        9.2870702911
 Ar        11.5999834128        6.7202283857       12.7891253822
 Ar         8.5496549657        8.5952672545       14.7759980759
 Ar        10.8310393629       12.1669488084        8.8414798727
 Ar        13.1888656390        9.8550437279       11.2582890534
 Ar         8.1312205576        9.7758499855        6.8302815638
 Ar        11.8292628284        8.6046129562        7.7569517221
 Ar         7.0955730449       11.8999738209       10.1324940474
 Ar        10.0654800683       11.9774395215       12.7719026822
 Ar         9.2885251467        8.6148884988       10.6683776769
      38
 i =        2, E =        -0.0569909044
 Ar        15.7317998426        7.6582773950       13.6661902833
 Ar         3.0973460293       11.9747588440       11.3777794104
 Ar         5.4698789321        7.5111702350        4.7349007390
 Ar        13.2753368387        4.8647429382        6.1645320481
 Ar         9.3958434568       12.0049908247       16.5897938077
 Ar         7.9450334311        5.5354547744       12.2499442334
 Ar         4.4652456862       13.6583623093        8.0440774223
 Ar        12.4663159293        8.0814826828        3.9610261585
 Ar         8.6604797898       15.1536265403       14.4049354741
 Ar        15.6131637184       11.6843366283       13.5193837779
 Ar         8.7290954731        9.3685213113        3.2694259966
 Ar         5.6031153342       11.5240378479        4.8152156734
 Ar         5.7141315947       14.9525472331       11.6793420170
 Ar        12.5941985289       13.9818419007       15.2860205298
 Ar        15.3532266976        8.1678003664        6.7127098173
 Ar        16.9096351693        9.4645891974       10.2449211511
 Ar        13.1899442614       13.7834139429       11.2460773762
 Ar        11.2440768267       11.4828836578        5.2413477079
 Ar         9.3912336399       15.1394067249       10.5136479103
 Ar         8.1177696206       13.7102324954        6.8111709500
 Ar        14.3539136671       11.5554003312        7.9820328905
 Ar         6.3982772660       11.9371007050       13.9613533802
 Ar         9.4372677932        6.4223567931        5.7155315242
 Ar         4.2469199505        9.7671492171        8.0464873871
 Ar        12.4867782160        9.9036580997       15.1546762441
 Ar        14.4016163174        6.3482806602        9.8988608983
 Ar         5.6976587671        8.7336960570       11.7699311030
 Ar         6.7293584280        6.4817741647        8.5858359500
 Ar        10.5549075787        5.2179571427        9.2717111070
 Ar        11.6712204560        6.7562915165       12.7949141520
 Ar         8.6234990203        8.7121733873       14.5646820116
 Ar        10.6460946921       12.0370780069        9.0294035690
 Ar        13.1550397772        9.8866308670       11.2282308290
 Ar         8.1471244903        9.7882376935        7.0470569028
 Ar        11.7947653557        8.5557358700        7.7575776882
 Ar         7.1927749667       11.6891606979       10.0236702394
 Ar        10.0699341704       11.9466604811       12.7602336360
 Ar         9.2185482864        8.7611424593       10.5527920033
      38
 i =        3, E =        -0.0560764598
 Ar        15.5750195775        7.7956677223       13.5154284296
 Ar         3.3473460293       11.9591087941       11.2980321213
 Ar         5.6373859624        7.6524426482        4.8821833740
 Ar        13.1850667700        5.0853778862        6.2661918812
 Ar         9.4395361967       12.0010908831       16.3562008395
 Ar         8.0107447099        5.7042091291       12.1587758650
 Ar         4.5987441148       13.5071958569        8.1234875017
 Ar        12.3755595555        8.0965504144        4.1751748901
 Ar         8.6929520768       14.9522316175       14.2932196099
 Ar        15.4373192046       11.5920121542       13.4393008472
 Ar         8.7396374801        9.3365954776        3.3661376765
 Ar         5.6780603481       11.4493968219        4.9548144565
 Ar         5.6381881906       14.9816782380       11.7455857379
 Ar        12.4849405354       13.8161990841       15.1372928671
 Ar        15.2465578215        8.1353015893        6.7786103316
 Ar        16.6673282484        9.4428261951       10.2683959319
 Ar        13.0979303091       13.6115879245       11.3111301272
 Ar        11.1881321461       11.3427834092        5.3001682309
 Ar         9.4270450640       14.9426690119       10.5448671237
 Ar         8.0876729250       13.5356208767        6.9201324783
 Ar        14.3382179241       11.4525247080        8.0622370055
 Ar         6.5464551840       11.8970463805       13.8232650606
 Ar         9.4777018578        6.5559000101        5.8111127554
 Ar         4.4822106027        9.8315241140        8.0856755418
 Ar        12.4189139055        9.9701517803       14.9382973568
 Ar        14.2561066983        6.5339237663        9.8863761007
 Ar         5.8243968084        8.8343795038       11.6892993140
 Ar         6.8695428583        6.6776439655        8.5994386751
 Ar        10.5611326622        5.4523445602        9.2567229518
 Ar        11.7406769263        6.7938132989       12.7991116069
 Ar         8.6973823426        8.8285546939       14.3535968734
 Ar        10.4698056194       11.9051620330        9.2115444910
 Ar        13.1196167587        9.9169296527       11.1981763401
 Ar         8.1634386059        9.7988135131        7.2580050775
 Ar        11.7605553296        8.5083649281        7.7597719604
 Ar         7.2813752060       11.4885042975        9.9201100818
 Ar        10.0748106526       11.9150977787       12.7486386058
 Ar         9.1550627918        8.9017372812       10.4409138802
      38
 i =        4, E =        -0.0580214194
 Ar        15.6767304201        7.7058572177       13.6136995952
 Ar         3.1845080237       11.9687955608       11.3502622187
 Ar         5.5283338251        7.5601380494        4.7866090764
 Ar        13.2435027695        4.9411192198        6.2002891777
 Ar         9.4108467390       12.0031005596       16.5098748926
 Ar         7.9679760120        5.5939547941       12.2183920090
 Ar         4.5112594532       13.6066559720        8.0716397585
 Ar        12.4356135807        8.0864236257        4.0340002336
 Ar         8.6716919352       15.0848590787       14.3661402822
 Ar        15.5529595868       11.6528348186       13.4920130003
 Ar         8.7322509062        9.3575878921        3.3035165134
 Ar         5.6291830394       11.4982562310        4.8631449406
 Ar         5.6893027151       14.9610744138       11.7011650199
 Ar        12.5563973626       13.9243704374       15.2339747808
 Ar        15.3175348558        8.1567582932        6.7345999823
 Ar        16.8260771279        9.4571489479       10.2529636729
 Ar        13.1580301204       13.7244924155       11.2683663332
 Ar        11.2244686314       11.4355324431        5.2634302183
 Ar         9.4021889726       15.0728910661       10.5252792113
 Ar         8.1080461365       13.6504470180        6.8484087947
 Ar        14.3469265681       11.5206432335        8.0098795169
 Ar         6.4488633959       11.9231835741       13.9131625751
 Ar         9.4500847460        6.4676321030        5.7482205046
 Ar         4.3284028476        9.7884119134        8.0605521807
 Ar        12.4631613655        9.9263279699       15.0797910012
 Ar        14.3508145231        6.4120737938        9.8952488399
 Ar         5.7394369820        8.7673216320       11.7430005681
 Ar         6.7773151472        6.5492116546        8.5904771519
 Ar        10.5569302620        5.2986964353        9.2670585390
 Ar        11.6943641846        6.7701676920       12.7955026073
 Ar         8.6493156007        8.7521121307       14.4912413449
 Ar        10.5938834672       11.9906763046        9.0877107231
 Ar        13.1410039888        9.8960200673       11.2176205007
 Ar         8.1538722956        9.7893064066        7.1121657790
 Ar        11.7832247734        8.5410738871        7.7598346148
 Ar         7.2124118828       11.6308254817        9.9935748136
 Ar        10.0720433872       11.9349659146       12.7560801568
 Ar         9.2036123691        8.8020137516       10.5185328710
      38
 i =        5, E =        -0.0582830092
 Ar        15.6566828910        7.7227710219       13.5948678104
 Ar         3.2158170127       11.9663338253       11.3405420230
 Ar         5.5493647169        7.5775575819        4.8054064878
 Ar        13.2318386547        4.9682543704        6.2133311146
 Ar         9.4161048019       12.0021206959       16.4820805293
 Ar         7.9762220361        5.6147179793       12.2072266702
 Ar         4.5274186682       13.5887036054        8.0814517599
 Ar        12.4251508540        8.0880013843        4.0592043723
 Ar         8.6756640003       15.0610275038       14.3523189517
 Ar        15.5320013946       11.6419260105       13.4825144709
 Ar         8.7330539675        9.3537881056        3.3159748251
 Ar         5.6384911183       11.4891389130        4.8798922055
 Ar         5.6813966869       14.9632026069       11.7082294542
 Ar        12.5429770148       13.9038725611       15.2151448717
 Ar        15.3056466694        8.1529595075        6.7417776400
 Ar        16.7966007497        9.4545668315       10.2557752310
 Ar        13.1466855603       13.7039408043       11.2761482062
 Ar        11.2173823384       11.4194550728        5.2723253195
 Ar         9.4051741667       15.0502176215       10.5298977535
 Ar         8.1050438966       13.6296396834        6.8613308105
 Ar        14.3435008785       11.5088535864        8.0198103797
 Ar         6.4663701118       11.9182145823       13.8958458784
 Ar         9.4539430766        6.4830792790        5.7595642700
 Ar         4.3573965411        9.7953474802        8.0658695717
 Ar        12.4547142402        9.9341741430       15.0532307032
 Ar        14.3325309567        6.4344138287        9.8944106530
 Ar         5.7530205120        8.7785274909       11.7339887665
 Ar         6.7939955221        6.5729790517        8.5920734562
 Ar        10.5575963721        5.3271081803        9.2657051169
 Ar        11.7020295311        6.7756236412       12.7951914927
 Ar         8.6586257079        8.7660804389       14.4649643856
 Ar        10.5799547881       11.9734478695        9.1056711720
 Ar        13.1349515278        9.8986637399       11.2137549659
 Ar         8.1567367677        9.7885066308        7.1315821573
 Ar        11.7793184789        8.5368561352        7.7615357343
 Ar         7.2142278463       11.6155430503        9.9857556472
 Ar        10.0730436932       11.9303232828       12.7544940839
 Ar         9.2018962489        8.8130239024       10.5085350582
      38
 i =        6, E =        -0.0588151149
 Ar        15.5949799880        7.7734429875       13.5378552116
 Ar         3.3107888152       11.9577804315       11.3116353539
 Ar         5.6132641497        7.6297943064        4.8631821150
 Ar        13.1956813350        5.0495027306        6.2535707923
 Ar         9.4315830196       11.9980980762       16.4008647462
 Ar         8.0012408595        5.6768462108       12.1739288645
 Ar         4.5751629450       13.5364031532        8.1108482819
 Ar        12.3952883518        8.0921748233        4.1322807321
 Ar         8.6875099962       14.9916658159       14.3107558414
 Ar        15.4706563974       11.6102139508       13.4547919785
 Ar         8.7344464213        9.3426901449        3.3543683315
 Ar         5.6665372369       11.4620119651        4.9291120505
 Ar         5.6606424915       14.9667213892       11.7272038844
 Ar        12.5028328802       13.8422263214       15.1575910320
 Ar        15.2726434242        8.1420533112        6.7613301475
 Ar        16.7090106638        9.4470530728       10.2640176525
 Ar        13.1126779048       13.6436639484       11.2989839506
 Ar        11.1957477663       11.3737584183        5.3023910643
 Ar         9.4112257281       14.9852569157       10.5452266792
 Ar         8.0976285481       13.5686961857        6.8990750108
 Ar        14.3301967533       11.4753538727        8.0496370243
 Ar         6.5172421801       11.9032468325       13.8433057585
 Ar         9.4631786727        6.5272056676        5.7926593725
 Ar         4.4443440188        9.8139870008        8.0828612115
 Ar        12.4292054050        9.9569284832       14.9738204847
 Ar        14.2769489184        6.5002575165        9.8933688248
 Ar         5.7896633165        8.8095883152       11.7088186709
 Ar         6.8427503735        6.6434720038        8.5967172445
 Ar        10.5593911822        5.4112535865        9.2626923983
 Ar        11.7232016165        6.7936252597       12.7926234320
 Ar         8.6869819258        8.8071442009       14.3856106234
 Ar        10.5526234048       11.9195743440        9.1506850222
 Ar        13.1132425808        9.9042956048       11.2018487599
 Ar         8.1668723834        9.7825461791        7.1779893974
 Ar        11.7683352537        8.5275675899        7.7695522041
 Ar         7.2040534374       11.5868005931        9.9714266696
 Ar        10.0768735413       11.9148046952       12.7491790327
 Ar         9.2079161132        8.8352560953       10.4856141479
      38
 i =        7, E =        -0.0591826661
 Ar        15.5751683992        7.7879217251       13.5207857998
 Ar         3.3395371286       11.9537985128       11.3036662051
 Ar         5.6327345066        7.6447977480        4.8816463485
 Ar        13.1837411647        5.0726738340        6.2666430525
 Ar         9.4356228856       11.9954860180       16.3802287290
 Ar         8.0088152008        5.6945762876       12.1645663953
 Ar         4.5879679903       13.5234005652        8.1191699168
 Ar        12.3885737374        8.0927448490        4.1501589460
 Ar         8.6908174746       14.9743694431       14.2985949316
 Ar        15.4548766729       11.6023769920       13.4477300843
 Ar         8.7336376875        9.3398757644        3.3666629149
 Ar         5.6747956642       11.4545339515        4.9420224580
 Ar         5.6582717472       14.9642473421       11.7299891637
 Ar        12.4914454716       13.8242999022       15.1396391655
 Ar        15.2664206595        8.1395965177        6.7645628708
 Ar        16.6848151111        9.4452061893       10.2661061460
 Ar        13.1028881822       13.6280161105       11.3048925096
 Ar        11.1890139090       11.3637229657        5.3152495594
 Ar         9.4094809664       14.9700306606       10.5513338181
 Ar         8.0975641074       13.5528901218        6.9087571241
 Ar        14.3226259317       11.4679813142        8.0582409550
 Ar         6.5298336592       11.8988512222       13.8273849201
 Ar         9.4629139720        6.5371497107        5.8010643317
 Ar         4.4692819641        9.8165243793        8.0890353941
 Ar        12.4216163356        9.9624125717       14.9512668576
 Ar        14.2599608604        6.5177778812        9.8948833669
 Ar         5.7952859051        8.8152884503       11.7038599901
 Ar         6.8551671566        6.6626740495        8.5979451530
 Ar        10.5596009519        5.4340686181        9.2632054302
 Ar        11.7270604136        6.8007864590       12.7899157174
 Ar         8.6956982032        8.8178594663       14.3620383998
 Ar        10.5616283835       11.9015845976        9.1529991002
 Ar        13.1024847832        9.9030678088       11.1980096475
 Ar         8.1717539887        9.7769035470        7.1773572445
 Ar        11.7661706128        8.5292110824        7.7754055358
 Ar         7.1836524395       11.5986079301        9.9781353646
 Ar        10.0790098894       11.9083804036       12.7466469701
 Ar         9.2226358826        8.8292670076       10.4876234824
      38
 i =        8, E =        -0.0603299671
 Ar        15.5183027972        7.8233110218       13.4760906799
 Ar         3.4160932126       11.9381907962       11.2853504984
 Ar         5.6850220488        7.6817424393        4.9343540805
 Ar        13.1483461281        5.1292452723        6.3047691760
 Ar         9.4439515020       11.9834748910       16.3390977474
 Ar         8.0288779668        5.7378182852       12.1422435363
 Ar         4.6159013775       13.4991708008        8.1387031745
 Ar        12.3785548822        8.0921844621        4.1831994048
 Ar         8.6986168747       14.9411214747       14.2676053050
 Ar        15.4224209977       11.5876797312       13.4333241717
 Ar         8.7275313680        9.3343383064        3.4012896705
 Ar         5.6959264855       11.4374560699        4.9694404446
 Ar         5.6649813283       14.9461711744       11.7276251880
 Ar        12.4639095613       13.7792702246       15.0899768109
 Ar        15.2626468511        8.1362420672        6.7642357972
 Ar        16.6283913536        9.4418990392       10.2700885896
 Ar        13.0786206333       13.5954091031       11.3170436809
 Ar        11.1705023624       11.3499733548        5.3619870492
 Ar         9.3932174678       14.9431968788       10.5718180705
 Ar         8.1052596422       13.5195852097        6.9288820511
 Ar        14.2907361592       11.4576974101        8.0794577460
 Ar         6.5536087782       11.8876085341       13.7850630961
 Ar         9.4519642004        6.5517345206        5.8179952433
 Ar         4.5306820994        9.8122476532        8.1089335672
 Ar        12.4018628613        9.9718284844       14.8964718802
 Ar        14.2141395582        6.5560824817        9.9050258425
 Ar         5.7925741435        8.8177338854       11.6993672376
 Ar         6.8800987990        6.7061766597        8.6008860860
 Ar        10.5589349435        5.4852263333        9.2695717669
 Ar        11.7287639944        6.8252354905       12.7765482838
 Ar         8.7193122108        8.8401958296       14.3008827044
 Ar        10.6380627379       11.8487540112        9.1227475444
 Ar        13.0595773673        9.8899261060       11.1870807633
 Ar         8.1906045283        9.7516435121        7.1313453229
 Ar        11.7647602101        8.5487636273        7.8020027548
 Ar         7.0811781495       11.6924335926       10.0301850714
 Ar        10.0879357171       11.8855625815       12.7354105559
 Ar         9.3006987007        8.7766306840       10.5213234065
      38
 i =        9, E =        -0.0605619767
 Ar        15.5161150526        7.8190786202       13.4783197907
 Ar         3.4133018578       11.9338813511       11.2889001961
 Ar         5.6836443435        7.6774931057        4.9360529861
 Ar        13.1459973935        5.1225982528        6.3068587539
 Ar         9.4412649939       11.9790608191       16.3531832478
 Ar         8.0278879968        5.7322540888       12.1456273055
 Ar         4.6084028537       13.5103679074        8.1346042568
 Ar        12.3858633726        8.0906258118        4.1689425380
 Ar         8.6974329936       14.9538871473       14.2699366870
 Ar        15.4321472728       11.5938825627       13.4376097155
 Ar         8.7244006105        9.3364276972        3.4014079732
 Ar         5.6943134387       11.4409527112        4.9620442763
 Ar         5.6764393231       14.9368287263       11.7189856766
 Ar        12.4674548684       13.7833466530       15.0898439177
 Ar        15.2743587623        8.1394911076        6.7563343972
 Ar        16.6374788192        9.4436480145       10.2683282589
 Ar        13.0811639518       13.6048826735       11.3132357948
 Ar        11.1707381319       11.3622650947        5.3714159187
 Ar         9.3836278430       14.9553831755       10.5743012528
 Ar         8.1125366935       13.5284031080        6.9234105439
 Ar        14.2815601858       11.4664927846        8.0769954364
 Ar         6.5438547880       11.8883727880       13.7869149954
 Ar         9.4434227015        6.5400776459        5.8125213284
 Ar         4.5241129096        9.8020998951        8.1114289444
 Ar        12.4029833524        9.9664345398       14.9032727539
 Ar        14.2151424236        6.5470947422        9.9100574563
 Ar         5.7775013861        8.8061984991       11.7069598226
 Ar         6.8718846950        6.6977136485        8.6008099957
 Ar        10.5578833325        5.4742027418        9.2738338261
 Ar        11.7209867147        6.8287967489       12.7718613299
 Ar         8.7187971598        8.8335155555       14.3045546746
 Ar        10.6789082367       11.8469512391        9.0922773106
 Ar        13.0483440123        9.8816040311       11.1870479961
 Ar         8.1952310552        9.7449772880        7.0965972339
 Ar        11.7691742089        8.5613317242        7.8101842955
 Ar         7.0470730064       11.7418501004       10.0579780296
 Ar        10.0903883386       11.8813684507       12.7304143831
 Ar         9.3307509195        8.7491209489       10.5443707000
      38
 i =       10, E =        -0.0606416395
 Ar        15.5092928117        7.8191139735       13.4760000687
 Ar         3.4176790340       11.9293254796       11.2900633421
 Ar         5.6871698592        7.6774696076        4.9420259162
 Ar        13.1410621419        5.1230115369        6.3120020554
 Ar         9.4399361453       11.9748575948       16.3589146019
 Ar         8.0285658486        5.7314767721       12.1463555928
 Ar         4.6044724763       13.5169326952        8.1319692548
 Ar        12.3894077361        8.0900905027        4.1627680097
 Ar         8.6973299225       14.9592384245       14.2688450565
 Ar        15.4355128156       11.5967487590       13.4387985693
 Ar         8.7223420837        9.3374893382        3.4035261892
 Ar         5.6948479317       11.4423197532        4.9593700771
 Ar         5.6838787811       14.9304684029       11.7137060624
 Ar        12.4675150615       13.7822837527       15.0853487437
 Ar        15.2814025806        8.1417118202        6.7516291925
 Ar        16.6383598324        9.4447618482       10.2672427707
 Ar        13.0808997069       13.6084354093       11.3116079512
 Ar        11.1695990979       11.3690220756        5.3805525177
 Ar         9.3769640282       14.9588243751       10.5764047755
 Ar         8.1184955106       13.5307630084        6.9222181621
 Ar        14.2739894129       11.4711256036        8.0767857954
 Ar         6.5394731417       11.8878350615       13.7851959127
 Ar         9.4376992365        6.5332526392        5.8105299651
 Ar         4.5251835805        9.7948770204        8.1147833641
 Ar        12.4020805107        9.9632136108       14.9032611524
 Ar        14.2118983714        6.5444248152        9.9138265272
 Ar         5.7692162140        8.7992233517       11.7106458868
 Ar         6.8687715474        6.6958633117        8.6015088897
 Ar        10.5572235292        5.4705460163        9.2769753032
 Ar        11.7164403760        6.8320915540       12.7686955799
 Ar         8.7203286620        8.8306798341       14.3019838975
 Ar        10.7032391402       11.8432158569        9.0734550975
 Ar        13.0381010102        9.8755984389       11.1865111631
 Ar         8.1995502087        9.7417393529        7.0776328448
 Ar        11.7726193425        8.5698311224        7.8160355232
 Ar         7.0285476649       11.7730518305       10.0769037938
 Ar        10.0923858384       11.8771102053       12.7242318702
 Ar         9.3510888069        8.7349372450       10.5591125239
      38
 i =       11, E =        -0.0607066289
 Ar        15.5010912991        7.8198374473       13.4727904027
 Ar         3.4231761449       11.9243975428       11.2910659328
 Ar         5.6916395172        7.6779669864        4.9491518907
 Ar        13.1353042746        5.1248243161        6.3181870317
 Ar         9.4386656733       11.9704809484       16.3628999548
 Ar         8.0292540263        5.7309803479       12.1468862425
 Ar         4.6001982695       13.5235131219        8.1283544842
 Ar        12.3918667938        8.0901954374        4.1585126784
 Ar         8.6974636738       14.9629087003       14.2671017930
 Ar        15.4373908156       11.5989808930       13.4390400329
 Ar         8.7209338839        9.3384796298        3.4052780169
 Ar         5.6956431260       11.4436893177        4.9575302734
 Ar         5.6899472450       14.9258698021       11.7096097969
 Ar        12.4669224287       13.7802589826       15.0798382923
 Ar        15.2872567538        8.1440150961        6.7479754492
 Ar        16.6373581214        9.4459536963       10.2660724148
 Ar        13.0801832652       13.6108894199       11.3102491208
 Ar        11.1684493979       11.3745709263        5.3886694976
 Ar         9.3716886785       14.9588108884       10.5774225189
 Ar         8.1245634188       13.5313974402        6.9224190086
 Ar        14.2678102084       11.4747242935        8.0766814781
 Ar         6.5361838425       11.8869542899       13.7834026479
 Ar         9.4332088495        6.5270755991        5.8093690766
 Ar         4.5279496365        9.7881701375        8.1183534074
 Ar        12.4008092055        9.9600505177       14.9020552754
 Ar        14.2078336215        6.5429787179        9.9170008679
 Ar         5.7637112092        8.7934909942       11.7128393441
 Ar         6.8668357330        6.6953460742        8.6027738847
 Ar        10.5567097287        5.4677494489        9.2797105302
 Ar        11.7129005777        6.8343239637       12.7667605713
 Ar         8.7221335282        8.8283423271       14.2983946180
 Ar        10.7174266106       11.8408537017        9.0599516106
 Ar        13.0287885424        9.8706000459       11.1862148827
 Ar         8.2035910459        9.7415727786        7.0676162361
 Ar        11.7763865576        8.5761889934        7.8199325901
 Ar         7.0224356156       11.7936853199       10.0912138960
 Ar        10.0939411468       11.8732163588       12.7164015972
 Ar         9.3649175332        8.7296174973       10.5696966528
      38
 i =       12, E =        -0.0608563435
 Ar        15.4777290939        7.8237931380       13.4623727434
 Ar         3.4403507312       11.9117384890       11.2925396158
 Ar         5.7053362528        7.6811456204        4.9694687312
 Ar        13.1193124960        5.1332586298        6.3356649663
 Ar         9.4360527292       11.9595781854       16.3677961324
 Ar         8.0315078502        5.7316528748       12.1470730131
 Ar         4.5906991610       13.5379613403        8.1189503560
 Ar        12.3953761801        8.0915761613        4.1529543042
 Ar         8.6984485591       14.9674584465       14.2609497724
 Ar        15.4381565553       11.6026372180       13.4374738900
 Ar         8.7186365961        9.3405141876        3.4097971165
 Ar         5.6986203281       11.4463861951        4.9555653042
 Ar         5.7018634684       14.9177768982       11.7020797433
 Ar        12.4635295119       13.7724552683       15.0636580255
 Ar        15.2987312982        8.1494369373        6.7412997395
 Ar        16.6299672239        9.4487928923       10.2632927976
 Ar        13.0769784670       13.6136964317       11.3078353166
 Ar        11.1652200053       11.3849997663        5.4071105825
 Ar         9.3613344889       14.9519360818       10.5784690560
 Ar         8.1390997870       13.5288995227        6.9259312862
 Ar        14.2549314033       11.4810158761        8.0772553812
 Ar         6.5311709427       11.8839334387       13.7778815819
 Ar         9.4245625246        6.5143090031        5.8086676135
 Ar         4.5393038685        9.7733892776        8.1277118458
 Ar        12.3965776538        9.9530455054       14.8954947570
 Ar        14.1955356580        6.5428958064        9.9236382284
 Ar         5.7556742512        8.7823741850       11.7152011839
 Ar         6.8651855457        6.6977924361        8.6068514504
 Ar        10.5557006432        5.4643557469        9.2856062742
 Ar        11.7064349019        6.8382928230       12.7640718508
 Ar         8.7275234950        8.8244376567       14.2864088182
 Ar        10.7351145322       11.8363049882        9.0369359712
 Ar        13.0074526671        9.8604223148       11.1855797445
 Ar         8.2131270000        9.7457007750        7.0584885967