 DBCSR| CPU Multiplication driver                                           BLAS (U)
 DBCSR| Multrec recursion limit                                              512 (U)
 DBCSR| Multiplication stack size                                           1000 (D)
 DBCSR| Maximum elements for images                                    UNLIMITED (U)
 DBCSR| Multiplicative factor virtual images                                   1 (U)
 DBCSR| Use multiplication densification                                       T (D)
 DBCSR| Multiplication size stacks                                             3 (U)
 DBCSR| Use memory pool for CPU allocation                                     F (U)
 DBCSR| OMP: Current number of threads                                         1
 DBCSR| OMP: Max number of threads                                             1
 DBCSR| Split modifier for TAS multiplication algorithm                  1.0E+00 (U)


  **** **** ******  **  PROGRAM STARTED AT               2023-04-05 13:44:31.873
 ***** ** ***  *** **   PROGRAM STARTED ON                           eu-g5-002-3
 **    ****   ******    PROGRAM STARTED BY                             jbachmann
 ***** **    ** ** **   PROGRAM PROCESS ID                                 51990
  **** **  *******  **  PROGRAM STARTED IN /cluster/home/jbachmann/Molecular-and
                                           -Materials-Modelling-FS2023/exercise7
                                           /B3LYP/TZVP

 CP2K| version string:                 CP2K version 2023.1 (Development Version)
 CP2K| source code revision number:                                  git:dc34ec9
 CP2K| cp2kflags: omp libint fftw3 libxc max_contr=4 spglib libvori libbqb      
 CP2K| is freely available from                            https://www.cp2k.org/
 CP2K| Program compiled at                         Mon Mar 27 23:22:21 CEST 2023
 CP2K| Program compiled on                                           eu-g5-025-4
 CP2K| Program compiled for                              Linux-gnu-x86_64-static
 CP2K| Data directory path      /cluster/apps/nss/gcc-6.3.0/cp2k/8.2/x86_64/data
 CP2K| Input file name                                               ethanol.inp

 GLOBAL| Force Environment number                                              1
 GLOBAL| Basis set file name                                        BASIS_MOLOPT
 GLOBAL| Potential file name                                      GTH_POTENTIALS
 GLOBAL| MM Potential file name                                     MM_POTENTIAL
 GLOBAL| Coordinate file name                                  ../../ethanol.xyz
 GLOBAL| Method name                                                        CP2K
 GLOBAL| Project name                                                    ethanol
 GLOBAL| Run type                                                        GEO_OPT
 GLOBAL| FFT library                                                       FFTW3
 GLOBAL| Diagonalization library                                       ScaLAPACK
 GLOBAL| DGEMM library                                                      BLAS
 GLOBAL| Orthonormality check for eigenvectors                          DISABLED
 GLOBAL| Matrix multiplication library                                 ScaLAPACK
 GLOBAL| All-to-all communication in single precision                          F
 GLOBAL| FFTs using library dependent lengths                                  F
 GLOBAL| Grid backend                                                       AUTO
 GLOBAL| Global print level                                                  LOW
 GLOBAL| MPI I/O enabled                                                       T
 GLOBAL| Total number of message passing processes                             1
 GLOBAL| Number of threads for this process                                    1
 GLOBAL| This output is from process                                           0
 GLOBAL| Stack size for threads created by OpenMP (OMP_STACKSIZE)        default
 GLOBAL| CPU model name                          AMD EPYC 7742 64-Core Processor

 MEMORY| system memory details [Kb]
 MEMORY|                        rank 0           min           max       average
 MEMORY| MemTotal            525874016     525874016     525874016     525874016
 MEMORY| MemFree             453210472     453210472     453210472     453210472
 MEMORY| Buffers                     0             0             0             0
 MEMORY| Cached               60252640      60252640      60252640      60252640
 MEMORY| Slab                  2199936       2199936       2199936       2199936
 MEMORY| SReclaimable           944716        944716        944716        944716
 MEMORY| MemLikelyFree       514407828     514407828     514407828     514407828


 GENERATE|  Preliminary Number of Bonds generated:                             0
 GENERATE|  Achieved consistency in connectivity generation.

 *******************************************************************************
 *******************************************************************************
 **                                                                           **
 **     #####                         ##              ##                      **
 **    ##   ##            ##          ##              ##                      **
 **   ##     ##                       ##            ######                    **
 **   ##     ##  ##   ##  ##   #####  ##  ##   ####   ##    #####    #####    **
 **   ##     ##  ##   ##  ##  ##      ## ##   ##      ##   ##   ##  ##   ##   **
 **   ##  ## ##  ##   ##  ##  ##      ####     ###    ##   ######   ######    **
 **    ##  ###   ##   ##  ##  ##      ## ##      ##   ##   ##       ##        **
 **     #######   #####   ##   #####  ##  ##  ####    ##    #####   ##        **
 **           ##                                                    ##        **
 **                                                                           **
 **                                                ... make the atoms dance   **
 **                                                                           **
 **            Copyright (C) by CP2K developers group (2000-2023)             **
 **                      J. Chem. Phys. 152, 194103 (2020)                    **
 **                                                                           **
 *******************************************************************************


 TOTAL NUMBERS AND MAXIMUM NUMBERS

  Total number of            - Atomic kinds:                                   3
                             - Atoms:                                          9
                             - Shell sets:                                     9
                             - Shells:                                        45
                             - Primitive Cartesian functions:                 63
                             - Cartesian basis functions:                     90
                             - Spherical basis functions:                     87

  Maximum angular momentum of- Orbital basis functions:                        2
                             - Local part of the GTH pseudopotential:          2
                             - Non-local part of the GTH pseudopotential:      0


 SCF PARAMETERS         Density guess:                                   RESTART
                        --------------------------------------------------------
                        max_scf:                                              50
                        max_scf_history:                                       0
                        max_diis:                                              4
                        --------------------------------------------------------
                        eps_scf:                                        1.00E-04
                        eps_scf_history:                                0.00E+00
                        eps_diis:                                       1.00E-01
                        eps_eigval:                                     1.00E-05
                        --------------------------------------------------------
                        level_shift [a.u.]:                             0.000000
                        --------------------------------------------------------
                        Outer loop SCF in use 
                        No variables optimised in outer loop
                        eps_scf                                         1.00E-04
                        max_scf                                              500
                        No outer loop optimization
                        step_size                                       5.00E-01

 PW_GRID| Information for grid number                                          1
 PW_GRID| Cutoff [a.u.]                                                    200.0
 PW_GRID| spherical cutoff:                                                   NO
 PW_GRID|   Bounds   1            -96      95                Points:         192
 PW_GRID|   Bounds   2            -96      95                Points:         192
 PW_GRID|   Bounds   3            -96      95                Points:         192
 PW_GRID| Volume element (a.u.^3)  0.3218E-02     Volume (a.u.^3)     22775.6292
 PW_GRID| Grid span                                                    FULLSPACE

 PW_GRID| Information for grid number                                          2
 PW_GRID| Number of the reference grid                                         1
 PW_GRID| Cutoff [a.u.]                                                     66.7
 PW_GRID| spherical cutoff:                                                   NO
 PW_GRID|   Bounds   1            -54      53                Points:         108
 PW_GRID|   Bounds   2            -54      53                Points:         108
 PW_GRID|   Bounds   3            -54      53                Points:         108
 PW_GRID| Volume element (a.u.^3)  0.1808E-01     Volume (a.u.^3)     22775.6292
 PW_GRID| Grid span                                                    FULLSPACE

 PW_GRID| Information for grid number                                          3
 PW_GRID| Number of the reference grid                                         1
 PW_GRID| Cutoff [a.u.]                                                     22.2
 PW_GRID| spherical cutoff:                                                   NO
 PW_GRID|   Bounds   1            -32      31                Points:          64
 PW_GRID|   Bounds   2            -32      31                Points:          64
 PW_GRID|   Bounds   3            -32      31                Points:          64
 PW_GRID| Volume element (a.u.^3)  0.8688E-01     Volume (a.u.^3)     22775.6292
 PW_GRID| Grid span                                                    FULLSPACE

 PW_GRID| Information for grid number                                          4
 PW_GRID| Number of the reference grid                                         1
 PW_GRID| Cutoff [a.u.]                                                      7.4
 PW_GRID| spherical cutoff:                                                   NO
 PW_GRID|   Bounds   1            -18      17                Points:          36
 PW_GRID|   Bounds   2            -18      17                Points:          36
 PW_GRID|   Bounds   3            -18      17                Points:          36
 PW_GRID| Volume element (a.u.^3)  0.4882         Volume (a.u.^3)     22775.6292
 PW_GRID| Grid span                                                    FULLSPACE

 POISSON| Solver                                                         WAVELET
 POISSON| Wavelet| Scaling function                                           40
 POISSON| Periodicity                                                       NONE

 RS_GRID| Information for grid number                                          1
 RS_GRID|   Bounds   1            -96      95                Points:         192
 RS_GRID|   Bounds   2            -96      95                Points:         192
 RS_GRID|   Bounds   3            -96      95                Points:         192

 RS_GRID| Information for grid number                                          2
 RS_GRID|   Bounds   1            -54      53                Points:         108
 RS_GRID|   Bounds   2            -54      53                Points:         108
 RS_GRID|   Bounds   3            -54      53                Points:         108

 RS_GRID| Information for grid number                                          3
 RS_GRID|   Bounds   1            -32      31                Points:          64
 RS_GRID|   Bounds   2            -32      31                Points:          64
 RS_GRID|   Bounds   3            -32      31                Points:          64

 RS_GRID| Information for grid number                                          4
 RS_GRID|   Bounds   1            -18      17                Points:          36
 RS_GRID|   Bounds   2            -18      17                Points:          36
 RS_GRID|   Bounds   3            -18      17                Points:          36

 BFGS| Use rational function optimization for step estimation:                NO
 BFGS| Use model Hessian for initial guess:                                  YES
 BFGS| Restart Hessian:                                                       NO
 BFGS| Trust radius:                                                       0.472

 *******************************************************************************
 ***                     STARTING GEOMETRY OPTIMIZATION                      ***
 ***                                   BFGS                                  ***
 *******************************************************************************

 Number of electrons:                                                         20
 Number of occupied orbitals:                                                 10
 Number of molecular orbitals:                                                10

 Number of orbital functions:                                                 87
 Number of independent orbital functions:                                     87

 Extrapolation method: initial_guess

 *** WARNING in qs_initial_guess.F:305 :: User requested to restart the    ***
 *** wavefunction from the file named: ethanol-RESTART.wfn. This file does ***
 *** not exist. Please check the existence of the file or change properly  ***
 *** the value of the keyword WFN_RESTART_FILE_NAME. Calculation continues ***
 *** using ATOMIC GUESS.                                                   ***



 SCF WAVEFUNCTION OPTIMIZATION

  ----------------------------------- OT ---------------------------------------
  Minimizer      : DIIS                : direct inversion
                                         in the iterative subspace
                                         using   7 DIIS vectors
                                         safer DIIS on
  Preconditioner : FULL_SINGLE_INVERSE : inversion of 
                                         H + eS - 2*(Sc)(c^T*H*c+const)(Sc)^T
  Precond_solver : DEFAULT
  stepsize       :    0.08000000                  energy_gap     :    0.08000000
  eps_taylor     :   0.10000E-15                  max_taylor     :             4
  ----------------------------------- OT ---------------------------------------

  Step     Update method      Time    Convergence         Total energy    Change
  ------------------------------------------------------------------------------
     1 OT DIIS     0.80E-01  124.1     0.17894627       -28.7048720693 -2.87E+01
     2 OT DIIS     0.80E-01  107.1     0.16333773       -29.8202438009 -1.12E+00
     3 OT DIIS     0.80E-01  107.3     0.07245774       -30.4439042558 -6.24E-01
     4 OT DIIS     0.80E-01  107.0     0.05992316       -30.6018989079 -1.58E-01
     5 OT DIIS     0.80E-01  106.9     0.01905879       -30.6879047878 -8.60E-02
     6 OT DIIS     0.80E-01  106.9     0.00926535       -30.7171403950 -2.92E-02
     7 OT DIIS     0.80E-01  107.0     0.00542618       -30.7223358594 -5.20E-03
     8 OT DIIS     0.80E-01  106.9     0.00285227       -30.7239090766 -1.57E-03
     9 OT DIIS     0.80E-01  107.1     0.00168466       -30.7246964462 -7.87E-04
    10 OT DIIS     0.80E-01  106.8     0.00114617       -30.7249549618 -2.59E-04
    11 OT DIIS     0.80E-01  106.6     0.00057481       -30.7250990927 -1.44E-04
    12 OT DIIS     0.80E-01  106.8     0.00038880       -30.7251281504 -2.91E-05
    13 OT DIIS     0.80E-01  106.6     0.00024641       -30.7251445661 -1.64E-05
    14 OT DIIS     0.80E-01  106.8     0.00013911       -30.7251506457 -6.08E-06
    15 OT DIIS     0.80E-01  107.0     0.00007680       -30.7251530937 -2.45E-06

  *** SCF run converged in    15 steps ***


  Electronic density on regular grids:        -19.5516925010        0.4483074990
  Core density on regular grids:               20.0000000000       -0.0000000000
  Hard and soft densities (Lebedev):         -395.4248909840     -394.9765838836
  Total Rho_soft + Rho1_hard - Rho1_soft      -19.9999996014
  Total charge density (r-space):               0.0000003986
  Total Rho_soft + Rho0_soft (g-space):         0.0000003318

  Overlap energy of the core charge distribution:               0.00000139242905
  Self energy of the core charge distribution:                -76.65906668574564
  Core Hamiltonian energy:                                     23.29924092290450
  Hartree energy:                                              45.33066780320265
  Exchange-correlation energy:                                 -6.90164242842922
  Hartree-Fock Exchange energy:                                -1.69235644906276

  GAPW| Exc from hard and soft atomic rho1:                    -0.33942096294663
  GAPW| local Eh = 1 center integrals:                        -13.76257668608751

  Total energy:                                               -30.72515309373556

  outer SCF iter =    1 RMS gradient =   0.77E-04 energy =        -30.7251530937
  outer SCF loop converged in   1 iterations or   15 steps

  
  Eigenvalues of the occupied subspace spin            1
 ---------------------------------------------
      -1.01203354     -0.74107204     -0.60212337     -0.50673696
      -0.45537273     -0.39281899     -0.37333509     -0.35585824
      -0.32395005     -0.26584568
 Fermi Energy [eV] :   -7.234029
  
  Lowest Eigenvalues of the unoccupied subspace spin            1
 -----------------------------------------------------
 OT| Eigensolver reached convergence in 53 iterations
       0.05146858
  
 HOMO - LUMO gap [eV] :    8.634560

 ENERGY| Total FORCE_EVAL ( QS ) energy [a.u.]:              -30.725153820189689

 --------  Informations at step =     0 ------------
  Optimization Method        =                 BFGS
  Total Energy               =       -30.7251538202
  Used time                  =             2987.956
 ---------------------------------------------------

 --------------------------
 OPTIMIZATION STEP:      1
 --------------------------

 Number of electrons:                                                         20
 Number of occupied orbitals:                                                 10
 Number of molecular orbitals:                                                10

 Number of orbital functions:                                                 87
 Number of independent orbital functions:                                     87

 Extrapolation method: ASPC


 SCF WAVEFUNCTION OPTIMIZATION

  ----------------------------------- OT ---------------------------------------
  Minimizer      : DIIS                : direct inversion
                                         in the iterative subspace
                                         using   7 DIIS vectors
                                         safer DIIS on
  Preconditioner : FULL_SINGLE_INVERSE : inversion of 
                                         H + eS - 2*(Sc)(c^T*H*c+const)(Sc)^T
  Precond_solver : DEFAULT
  stepsize       :    0.08000000                  energy_gap     :    0.08000000
  eps_taylor     :   0.10000E-15                  max_taylor     :             4
  ----------------------------------- OT ---------------------------------------

  Step     Update method      Time    Convergence         Total energy    Change
  ------------------------------------------------------------------------------
     1 OT DIIS     0.80E-01  118.9     0.00055578       -30.7252186743 -3.07E+01
     2 OT DIIS     0.80E-01  105.1     0.00036252       -30.7252363081 -1.76E-05
     3 OT DIIS     0.80E-01  104.7     0.00009686       -30.7252499051 -1.36E-05

  *** SCF run converged in     3 steps ***


  Electronic density on regular grids:        -19.5534294698        0.4465705302
  Core density on regular grids:               20.0000000000       -0.0000000000
  Hard and soft densities (Lebedev):         -391.7753687877     -391.3287986459
  Total Rho_soft + Rho1_hard - Rho1_soft      -19.9999996116
  Total charge density (r-space):               0.0000003884
  Total Rho_soft + Rho0_soft (g-space):         0.0000003213

  Overlap energy of the core charge distribution:               0.00000135398310
  Self energy of the core charge distribution:                -76.65906668574564
  Core Hamiltonian energy:                                     23.27358276564282
  Hartree energy:                                              45.35468124735462
  Exchange-correlation energy:                                 -6.89746652702047
  Hartree-Fock Exchange energy:                                -1.69082983026221

  GAPW| Exc from hard and soft atomic rho1:                    -0.33805865647917
  GAPW| local Eh = 1 center integrals:                        -13.76809357253071

  Total energy:                                               -30.72524990505765

  outer SCF iter =    1 RMS gradient =   0.97E-04 energy =        -30.7252499051
  outer SCF loop converged in   1 iterations or    3 steps

  
  Eigenvalues of the occupied subspace spin            1
 ---------------------------------------------
      -1.01037325     -0.74048919     -0.60164628     -0.50526326
      -0.45487028     -0.39205934     -0.37317770     -0.35582570
      -0.32489341     -0.26647714
 Fermi Energy [eV] :   -7.251212
  
  Lowest Eigenvalues of the unoccupied subspace spin            1
 -----------------------------------------------------
 OT| Eigensolver reached convergence in 55 iterations
       0.05113591
  
 HOMO - LUMO gap [eV] :    8.642691

 ENERGY| Total FORCE_EVAL ( QS ) energy [a.u.]:              -30.725250866062972

 --------  Informations at step =     1 ------------
  Optimization Method        =                 BFGS
  Total Energy               =       -30.7252508661
  Real energy change         =        -0.0000970459
  Predicted change in energy =        -0.0000746848
  Scaling factor             =         0.0000000000
  Step size                  =         0.0124642251
  Trust radius               =         0.4724315332
  Decrease in energy         =                  YES
  Used time                  =             1795.700

  Convergence check :
  Max. step size             =         0.0124642251
  Conv. limit for step size  =         0.0100000000
  Convergence in step size   =                   NO
  RMS step size              =         0.0034250263
  Conv. limit for RMS step   =         0.0030000000
  Convergence in RMS step    =                   NO
  Max. gradient              =         0.0026800611
  Conv. limit for gradients  =         0.0010000000
  Conv. for gradients        =                   NO
  RMS gradient               =         0.0009908584
  Conv. limit for RMS grad.  =         0.0003000000
  Conv. for gradients        =                   NO
 ---------------------------------------------------
 Estimated peak process memory after this step [MiB]                        1853

 --------------------------
 OPTIMIZATION STEP:      2
 --------------------------

 Number of electrons:                                                         20
 Number of occupied orbitals:                                                 10
 Number of molecular orbitals:                                                10

 Number of orbital functions:                                                 87
 Number of independent orbital functions:                                     87

 Extrapolation method: ASPC


 SCF WAVEFUNCTION OPTIMIZATION

  ----------------------------------- OT ---------------------------------------
  Minimizer      : DIIS                : direct inversion
                                         in the iterative subspace
                                         using   7 DIIS vectors
                                         safer DIIS on
  Preconditioner : FULL_SINGLE_INVERSE : inversion of 
                                         H + eS - 2*(Sc)(c^T*H*c+const)(Sc)^T
  Precond_solver : DEFAULT
  stepsize       :    0.08000000                  energy_gap     :    0.08000000
  eps_taylor     :   0.10000E-15                  max_taylor     :             4
  ----------------------------------- OT ---------------------------------------

  Step     Update method      Time    Convergence         Total energy    Change
  ------------------------------------------------------------------------------
     1 OT DIIS     0.80E-01  120.4     0.00046223       -30.7252506943 -3.07E+01
     2 OT DIIS     0.80E-01  106.9     0.00030734       -30.7252629688 -1.23E-05
     3 OT DIIS     0.80E-01  105.7     0.00008818       -30.7252730190 -1.01E-05

  *** SCF run converged in     3 steps ***


  Electronic density on regular grids:        -19.5546017552        0.4453982448
  Core density on regular grids:               20.0000000000       -0.0000000000
  Hard and soft densities (Lebedev):         -387.9172082139     -387.4718103479
  Total Rho_soft + Rho1_hard - Rho1_soft      -19.9999996213
  Total charge density (r-space):               0.0000003787
  Total Rho_soft + Rho0_soft (g-space):         0.0000003119

  Overlap energy of the core charge distribution:               0.00000132820318
  Self energy of the core charge distribution:                -76.65906668574564
  Core Hamiltonian energy:                                     23.25481674811185
  Hartree energy:                                              45.37181862265083
  Exchange-correlation energy:                                 -6.89417365554447
  Hartree-Fock Exchange energy:                                -1.68969574314454

  GAPW| Exc from hard and soft atomic rho1:                    -0.33718833486049
  GAPW| local Eh = 1 center integrals:                        -13.77178529862327

  Total energy:                                               -30.72527301895255

  outer SCF iter =    1 RMS gradient =   0.88E-04 energy =        -30.7252730190
  outer SCF loop converged in   1 iterations or    3 steps

  
  Eigenvalues of the occupied subspace spin            1
 ---------------------------------------------
      -1.00763425     -0.74004106     -0.60149599     -0.50331075
      -0.45445856     -0.39106031     -0.37318129     -0.35617157
      -0.32444925     -0.26615221
 Fermi Energy [eV] :   -7.242370
  
  Lowest Eigenvalues of the unoccupied subspace spin            1
 -----------------------------------------------------
 OT| Eigensolver reached convergence in 49 iterations
       0.05106681
  
 HOMO - LUMO gap [eV] :    8.631969

 ENERGY| Total FORCE_EVAL ( QS ) energy [a.u.]:              -30.725273844825793

 --------  Informations at step =     2 ------------
  Optimization Method        =                 BFGS
  Total Energy               =       -30.7252738448
  Real energy change         =        -0.0000229788
  Predicted change in energy =        -0.0000360041
  Scaling factor             =         0.0000000000
  Step size                  =         0.0093007401
  Trust radius               =         0.4724315332
  Decrease in energy         =                  YES
  Used time                  =             1878.913

  Convergence check :
  Max. step size             =         0.0093007401
  Conv. limit for step size  =         0.0100000000
  Convergence in step size   =                  YES
  RMS step size              =         0.0041099129
  Conv. limit for RMS step   =         0.0030000000
  Convergence in RMS step    =                   NO
  Max. gradient              =         0.0010886476
  Conv. limit for gradients  =         0.0010000000
  Conv. for gradients        =                   NO
  RMS gradient               =         0.0004598937
  Conv. limit for RMS grad.  =         0.0003000000
  Conv. for gradients        =                   NO
 ---------------------------------------------------
 Estimated peak process memory after this step [MiB]                        1853

 --------------------------
 OPTIMIZATION STEP:      3
 --------------------------

 Number of electrons:                                                         20
 Number of occupied orbitals:                                                 10
 Number of molecular orbitals:                                                10

 Number of orbital functions:                                                 87
 Number of independent orbital functions:                                     87

 Extrapolation method: ASPC


 SCF WAVEFUNCTION OPTIMIZATION

  ----------------------------------- OT ---------------------------------------
  Minimizer      : DIIS                : direct inversion
                                         in the iterative subspace
                                         using   7 DIIS vectors
                                         safer DIIS on
  Preconditioner : FULL_SINGLE_INVERSE : inversion of 
                                         H + eS - 2*(Sc)(c^T*H*c+const)(Sc)^T
  Precond_solver : DEFAULT
  stepsize       :    0.08000000                  energy_gap     :    0.08000000
  eps_taylor     :   0.10000E-15                  max_taylor     :             4
  ----------------------------------- OT ---------------------------------------

  Step     Update method      Time    Convergence         Total energy    Change
  ------------------------------------------------------------------------------
     1 OT DIIS     0.80E-01  137.6     0.00072878       -30.7252307329 -3.07E+01
     2 OT DIIS     0.80E-01  122.4     0.00046577       -30.7252606033 -2.99E-05
     3 OT DIIS     0.80E-01  121.6     0.00015887       -30.7252819306 -2.13E-05
     4 OT DIIS     0.80E-01  124.2     0.00005704       -30.7252846589 -2.73E-06

  *** SCF run converged in     4 steps ***


  Electronic density on regular grids:        -19.5547052878        0.4452947122
  Core density on regular grids:               20.0000000000       -0.0000000000
  Hard and soft densities (Lebedev):         -387.6932005066     -387.2479061711
  Total Rho_soft + Rho1_hard - Rho1_soft      -19.9999996233
  Total charge density (r-space):               0.0000003767
  Total Rho_soft + Rho0_soft (g-space):         0.0000003102

  Overlap energy of the core charge distribution:               0.00000134083079
  Self energy of the core charge distribution:                -76.65906668574564
  Core Hamiltonian energy:                                     23.25559108660495
  Hartree energy:                                              45.37168640995437
  Exchange-correlation energy:                                 -6.89455809060203
  Hartree-Fock Exchange energy:                                -1.68975830900251

  GAPW| Exc from hard and soft atomic rho1:                    -0.33708252639408
  GAPW| local Eh = 1 center integrals:                        -13.77209788455903

  Total energy:                                               -30.72528465891317

  outer SCF iter =    1 RMS gradient =   0.57E-04 energy =        -30.7252846589
  outer SCF loop converged in   1 iterations or    4 steps

  
  Eigenvalues of the occupied subspace spin            1
 ---------------------------------------------
      -1.00764439     -0.74011719     -0.60168254     -0.50318494
      -0.45448931     -0.39126994     -0.37292597     -0.35591676
      -0.32495007     -0.26645879
 Fermi Energy [eV] :   -7.250712
  
  Lowest Eigenvalues of the unoccupied subspace spin            1
 -----------------------------------------------------
 OT| Eigensolver reached convergence in 49 iterations
       0.05106765
  
 HOMO - LUMO gap [eV] :    8.640334

 ENERGY| Total FORCE_EVAL ( QS ) energy [a.u.]:              -30.725284994459354

 --------  Informations at step =     3 ------------
  Optimization Method        =                 BFGS
  Total Energy               =       -30.7252849945
  Real energy change         =        -0.0000111496
  Predicted change in energy =        -0.0000125701
  Scaling factor             =         0.0000000000
  Step size                  =         0.0043814238
  Trust radius               =         0.4724315332
  Decrease in energy         =                  YES
  Used time                  =             2043.694

  Convergence check :
  Max. step size             =         0.0043814238
  Conv. limit for step size  =         0.0100000000
  Convergence in step size   =                  YES
  RMS step size              =         0.0023280392
  Conv. limit for RMS step   =         0.0030000000
  Convergence in RMS step    =                  YES
  Max. gradient              =         0.0004721338
  Conv. limit for gradients  =         0.0010000000
  Conv. in gradients         =                  YES
  RMS gradient               =         0.0001767140
  Conv. limit for RMS grad.  =         0.0003000000
  Conv. in RMS gradients     =                  YES
 ---------------------------------------------------
 Estimated peak process memory after this step [MiB]                        1853

 *******************************************************************************
 ***                    GEOMETRY OPTIMIZATION COMPLETED                      ***
 *******************************************************************************

                    Reevaluating energy at the minimum

 Number of electrons:                                                         20
 Number of occupied orbitals:                                                 10
 Number of molecular orbitals:                                                10

 Number of orbital functions:                                                 87
 Number of independent orbital functions:                                     87

 Extrapolation method: ASPC


 SCF WAVEFUNCTION OPTIMIZATION

  ----------------------------------- OT ---------------------------------------
  Minimizer      : DIIS                : direct inversion
                                         in the iterative subspace
                                         using   7 DIIS vectors
                                         safer DIIS on
  Preconditioner : FULL_SINGLE_INVERSE : inversion of 
                                         H + eS - 2*(Sc)(c^T*H*c+const)(Sc)^T
  Precond_solver : DEFAULT
  stepsize       :    0.08000000                  energy_gap     :    0.08000000
  eps_taylor     :   0.10000E-15                  max_taylor     :             4
  ----------------------------------- OT ---------------------------------------

  Step     Update method      Time    Convergence         Total energy    Change
  ------------------------------------------------------------------------------
     1 OT DIIS     0.80E-01  133.0     0.00066688       -30.7252402482 -3.07E+01
     2 OT DIIS     0.80E-01  117.9     0.00042519       -30.7252653125 -2.51E-05
     3 OT DIIS     0.80E-01  119.3     0.00012718       -30.7252831411 -1.78E-05
     4 OT DIIS     0.80E-01  118.5     0.00004648       -30.7252848054 -1.66E-06

  *** SCF run converged in     4 steps ***


  Electronic density on regular grids:        -19.5547801661        0.4452198339
  Core density on regular grids:               20.0000000000       -0.0000000000
  Hard and soft densities (Lebedev):         -387.6972345555     -387.2520150983
  Total Rho_soft + Rho1_hard - Rho1_soft      -19.9999996233
  Total charge density (r-space):               0.0000003767
  Total Rho_soft + Rho0_soft (g-space):         0.0000003102

  Overlap energy of the core charge distribution:               0.00000134083079
  Self energy of the core charge distribution:                -76.65906668574564
  Core Hamiltonian energy:                                     23.25497776510472
  Hartree energy:                                              45.37238864834805
  Exchange-correlation energy:                                 -6.89451538307491
  Hartree-Fock Exchange energy:                                -1.68973579878796

  GAPW| Exc from hard and soft atomic rho1:                    -0.33702660631549
  GAPW| local Eh = 1 center integrals:                        -13.77230808577977

  Total energy:                                               -30.72528480542021

  outer SCF iter =    1 RMS gradient =   0.46E-04 energy =        -30.7252848054
  outer SCF loop converged in   1 iterations or    4 steps

  
  Eigenvalues of the occupied subspace spin            1
 ---------------------------------------------
      -1.00767251     -0.74015643     -0.60172128     -0.50321519
      -0.45451476     -0.39130161     -0.37295369     -0.35593581
      -0.32497920     -0.26647826
 Fermi Energy [eV] :   -7.251242
  
  Lowest Eigenvalues of the unoccupied subspace spin            1
 -----------------------------------------------------
 OT| Eigensolver reached convergence in 51 iterations
       0.05104369
  
 HOMO - LUMO gap [eV] :    8.640212

 ENERGY| Total FORCE_EVAL ( QS ) energy [a.u.]:              -30.725284805420205

 -------------------------------------------------------------------------------
 -                                                                             -
 -                                DBCSR STATISTICS                             -
 -                                                                             -
 -------------------------------------------------------------------------------
 COUNTER                                    TOTAL       BLAS       SMM       ACC
 flops    10 x     1 x    10                 2000     100.0%      0.0%      0.0%
 flops     1 x     1 x     1                 2244     100.0%      0.0%      0.0%
 flops    10 x     1 x    87                17400     100.0%      0.0%      0.0%
 flops    87 x     1 x    10                17400     100.0%      0.0%      0.0%
 flops    11 x     1 x    11                31702     100.0%      0.0%      0.0%
 flops     6 x    10 x    10                36000     100.0%      0.0%      0.0%
 flops    17 x    10 x    10                51000     100.0%      0.0%      0.0%
 flops     1 x     1 x    87                86826     100.0%      0.0%      0.0%
 flops    87 x     1 x     1               135024     100.0%      0.0%      0.0%
 flops    11 x    11 x    87               210540     100.0%      0.0%      0.0%
 flops    11 x     1 x    87               250734     100.0%      0.0%      0.0%
 flops    87 x     1 x    11               250734     100.0%      0.0%      0.0%
 flops    10 x    10 x    10               394000     100.0%      0.0%      0.0%
 flops     6 x     6 x    10               650160     100.0%      0.0%      0.0%
 flops    17 x     6 x    10               789480     100.0%      0.0%      0.0%
 flops     6 x    17 x    10               789480     100.0%      0.0%      0.0%
 flops     6 x     1 x     6              1371168     100.0%      0.0%      0.0%
 flops    17 x    17 x    10              1491240     100.0%      0.0%      0.0%
 flops    87 x    11 x    87              1665180     100.0%      0.0%      0.0%
 flops    17 x     1 x     6              1942488     100.0%      0.0%      0.0%
 flops     6 x     1 x    17              1942488     100.0%      0.0%      0.0%
 flops    87 x     1 x    87              1983078     100.0%      0.0%      0.0%
 flops    10 x    10 x    87              2192400     100.0%      0.0%      0.0%
 flops    87 x    10 x    10              2436000     100.0%      0.0%      0.0%
 flops     6 x    10 x     6              2721600     100.0%      0.0%      0.0%
 flops    17 x     1 x    17              2751858     100.0%      0.0%      0.0%
 flops    17 x    10 x     6              3855600     100.0%      0.0%      0.0%
 flops     6 x    10 x    17              3855600     100.0%      0.0%      0.0%
 flops    87 x    10 x    87              5146920     100.0%      0.0%      0.0%
 flops    17 x    10 x    17              5462100     100.0%      0.0%      0.0%
 flops inhomo. stacks                           0       0.0%      0.0%      0.0%
 flops total                        42.532444E+06     100.0%      0.0%      0.0%
 flops max/rank                     42.532444E+06     100.0%      0.0%      0.0%
 matmuls inhomo. stacks                         0       0.0%      0.0%      0.0%
 matmuls total                              56802     100.0%      0.0%      0.0%
 number of processed stacks                  6186     100.0%      0.0%      0.0%
 average stack size                                     9.2       0.0       0.0
 marketing flops                    45.411240E+06
 -------------------------------------------------------------------------------
 # multiplications                           4175
 max memory usage/rank               1.885921E+09
 # max total images/rank                        1
 # max 3D layers                                1
 # MPI messages exchanged                       0
 -------------------------------------------------------------------------------

 -------------------------------------------------------------------------------
 -                                                                             -
 -                                DBM STATISTICS                               -
 -                                                                             -
 -------------------------------------------------------------------------------
    M  x    N  x    K                                          COUNT     PERCENT
 -------------------------------------------------------------------------------

 -------------------------------------------------------------------------------
 -                                                                             -
 -                                GRID STATISTICS                              -
 -                                                                             -
 -------------------------------------------------------------------------------
 LP    KERNEL             BACKEND                              COUNT     PERCENT
 2     collocate ortho    REF                                  24554      24.01%
 2     integrate ortho    REF                                  20764      20.31%
 3     collocate ortho    REF                                  20366      19.92%
 3     integrate ortho    REF                                  20235      19.79%
 4     integrate ortho    REF                                   7993       7.82%
 4     collocate ortho    REF                                   6562       6.42%
 5     integrate ortho    REF                                    772       0.75%
 1     collocate ortho    REF                                    420       0.41%
 2     collocate general  REF                                    297       0.29%
 2     integrate general  REF                                    261       0.26%
 3     integrate general  REF                                     36       0.04%
 -------------------------------------------------------------------------------

 MEMORY| Estimated peak process memory [MiB]                                1853

 -------------------------------------------------------------------------------
 ----                             MULTIGRID INFO                            ----
 -------------------------------------------------------------------------------
 count for grid        1:          30032          cutoff [a.u.]          200.00
 count for grid        2:          17721          cutoff [a.u.]           66.67
 count for grid        3:          13933          cutoff [a.u.]           22.22
 count for grid        4:          10495          cutoff [a.u.]            7.41
 total gridlevel count  :          72181

 -------------------------------------------------------------------------------
 -                                                                             -
 -                           R E F E R E N C E S                               -
 -                                                                             -
 -------------------------------------------------------------------------------
 
 CP2K version 2023.1 (Development Version), the CP2K developers group (2023).
 CP2K is freely available from https://www.cp2k.org/ .

 Kuehne,Thomas D.; Iannuzzi,Marcella; Del Ben,Mauro;
 Rybkin,Vladimir V.; Seewald,Patrick; Stein,Frederick; Laino,Teodoro;
 Khaliullin,Rustam Z.; Schuett,Ole; Schiffmann,Florian; Golze,Dorothea;
 Wilhelm,Jan; Chulkov,Sergey; Bani-Hashemian,Mohammad Hossein;
 Weber,Valery; Borstnik,Urban; Taillefumier,Mathieu;
 Jakobovits,Alice Shoshana; Lazzaro,Alfio; Pabst,Hans; Mueller,Tiziano;
 Schade,Robert; Guidon,Manuel; Andermatt,Samuel; Holmberg,Nico;
 Schenter,Gregory K.; Hehn,Anna; Bussy,Augustin; Belleflamme,Fabian;
 Tabacchi,Gloria; Gloess,Andreas; Lass,Michael; Bethune,Iain;
 Mundy,Christopher J.; Plessl,Christian; Watkins,Matt;
 VandeVondele,Joost; Krack,Matthias; Hutter,Juerg. 
 The Journal of Chemical Physics, 152 (19), (2020). 
 CP2K: An electronic structure and molecular dynamics software package -
 Quickstep: Efficient and accurate electronic structure calculations.
 https://doi.org/10.1063/5.0007045

 Schuett, Ole; Messmer, Peter; Hutter, Juerg; VandeVondele, Joost. 
 Electronic Structure Calculations on Graphics Processing Units, John
 Wiley & Sons, Ltd, 173-190 (2016). 
 GPU-Accelerated Sparse Matrix-Matrix Multiplication for
 Linear Scaling Density Functional Theory.
 https://doi.org/10.1002/9781118670712.ch8

 Borstnik, U; VandeVondele, J; Weber, V; Hutter, J. 
 PARALLEL COMPUTING, 40 (5-6), 47-58 (2014). 
 Sparse matrix multiplication: The distributed block-compressed sparse
 row library.
 https://doi.org/10.1016/j.parco.2014.03.012

 Hutter, J; Iannuzzi, M; Schiffmann, F; VandeVondele, J. 
 WIREs Comput Mol Sci., 4 (1), 15-25 (2014). 
 CP2K: atomistic simulations of condensed matter systems.
 https://doi.org/10.1002/wcms.1159

 Guidon, M; Hutter, J; VandeVondele, J. 
 JOURNAL OF CHEMICAL THEORY AND COMPUTATION, 5 (11), 3010-3021 (2009). 
 Robust Periodic Hartree-Fock Exchange for Large-Scale Simulations Using
 Gaussian Basis Sets.
 https://doi.org/10.1021/ct900494g

 Guidon, M; Schiffmann, F; Hutter, J; VandeVondele, J. 
 JOURNAL OF CHEMICAL PHYSICS, 128 (21), 214104 (2008). 
 Ab initio molecular dynamics using hybrid density functionals.
 https://doi.org/10.1063/1.2931945

 VandeVondele, J; Hutter, J. 
 JOURNAL OF CHEMICAL PHYSICS, 127 (11), 114105 (2007). 
 Gaussian basis sets for accurate calculations on molecular systems in
 gas and condensed phases.
 https://doi.org/10.1063/1.2770708

 Genovese, L; Deutsch, T; Goedecker, S. 
 JOURNAL OF CHEMICAL PHYSICS, 127 (5), 054704 (2007). 
 Efficient and accurate three-dimensional Poisson solver for surface
 problems.
 https://doi.org/10.1063/1.2754685

 Kuhne, TD; Krack, M; Mohamed, FR; Parrinello, M. 
 PHYSICAL REVIEW LETTERS, 98 (6), 066401 (2007). 
 Efficient and accurate Car-Parrinello-like approach to
 Born-Oppenheimer molecular dynamics.
 https://doi.org/10.1103/PhysRevLett.98.066401

 Genovese, L; Deutsch, T; Neelov, A; Goedecker, S; Beylkin, G. 
 JOURNAL OF CHEMICAL PHYSICS, 125 (7), 074105 (2006). 
 Efficient solution of Poisson's equation with free boundary conditions.
 https://doi.org/10.1063/1.2335442

 Krack, M. 
 THEORETICAL CHEMISTRY ACCOUNTS, 114 (1-3), 145-152 (2005). 
 Pseudopotentials for H to Kr optimized for gradient-corrected
 exchange-correlation functionals.
 https://doi.org/10.1007/s00214-005-0655-y

 Frigo, M; Johnson, SG. 
 PROCEEDINGS OF THE IEEE, 93 (2), 216-231 (2005). 
 The design and implementation of FFTW3.
 https://doi.org/10.1109/JPROC.2004.840301

 Kolafa, J. 
 JOURNAL OF COMPUTATIONAL CHEMISTRY, 25 (3), 335-342 (2004). 
 Time-reversible always stable predictor-corrector method for
 molecular dynamics of polarizable molecules.
 https://doi.org/10.1002/jcc.10385

 VandeVondele, J; Hutter, J. 
 JOURNAL OF CHEMICAL PHYSICS, 118 (10), 4365-4369 (2003). 
 An efficient orbital transformation method for electronic structure
 calculations.
 https://doi.org/10.1063/1.1543154

 Lippert, G; Hutter, J; Parrinello, M. 
 THEORETICAL CHEMISTRY ACCOUNTS, 103 (2), 124-140 (1999). 
 The Gaussian and augmented-plane-wave density functional method for ab
 initio molecular dynamics simulations.
 https://doi.org/10.1007/s002140050523

 Krack, M; Parrinello, M. 
 PHYSICAL CHEMISTRY CHEMICAL PHYSICS, 2 (10), 2105-2112 (2000). 
 All-electron ab-initio molecular dynamics.
 https://doi.org/10.1039/b001167n

 Hartwigsen, C; Goedecker, S; Hutter, J. 
 PHYSICAL REVIEW B, 58 (7), 3641-3662 (1998). 
 Relativistic separable dual-space Gaussian pseudopotentials from H to Rn.
 https://doi.org/10.1103/PhysRevB.58.3641

 Goedecker, S; Teter, M; Hutter, J. 
 PHYSICAL REVIEW B, 54 (3), 1703-1710 (1996). 
 Separable dual-space Gaussian pseudopotentials.
 https://doi.org/10.1103/PhysRevB.54.1703

 BECKE, AD. PHYSICAL REVIEW A, 38 (6), 3098-3100 (1988). 
 DENSITY-FUNCTIONAL EXCHANGE-ENERGY APPROXIMATION WITH CORRECT
 ASYMPTOTIC-BEHAVIOR.
 https://doi.org/10.1103/PhysRevA.38.3098

 LEE, CT; YANG, WT; PARR, RG. 
 PHYSICAL REVIEW B, 37 (2), 785-789 (1988). 
 DEVELOPMENT OF THE COLLE-SALVETTI CORRELATION-ENERGY FORMULA INTO A
 FUNCTIONAL OF THE ELECTRON-DENSITY.
 https://doi.org/10.1103/PhysRevB.37.785


 -------------------------------------------------------------------------------
 -                                                                             -
 -                                T I M I N G                                  -
 -                                                                             -
 -------------------------------------------------------------------------------
 SUBROUTINE                       CALLS  ASD         SELF TIME        TOTAL TIME
                                MAXIMUM       AVERAGE  MAXIMUM  AVERAGE  MAXIMUM
 CP2K                                 1  1.0    0.304    0.304 9203.194 9203.194
 cp_geo_opt                           1  2.0    0.005    0.005 9200.621 9200.621
 geoopt_bfgs                          1  3.0    0.049    0.049 9200.616 9200.616
 cp_eval_at                           5  4.0    0.053    0.053 9200.290 9200.290
 rebuild_ks_matrix                   33  9.5    0.000    0.000 9149.267 9149.267
 qs_ks_build_kohn_sham_matrix        33 10.5    0.149    0.149 9149.266 9149.266
 hfx_ks_matrix                       33 11.5    0.045    0.045 8879.863 8879.863
 qs_forces                            4  5.0    0.035    0.035 8706.019 8706.019
 qs_ks_update_qs_env_forces           4  6.0    0.002    0.002 5895.778 5895.778
 derivatives_four_center              4 10.0    0.032    0.032 5452.719 5452.719
 derivatives_four_center_main         4 11.0    0.025    0.025 5452.672 5452.672
 derivatives_four_center_bin          4 12.0 5452.644 5452.644 5452.644 5452.644
 integrate_four_center               33 12.5    0.093    0.093 3427.048 3427.048
 integrate_four_center_main          33 13.5    0.035    0.035 3424.872 3424.872
 integrate_four_center_bin           33 14.5 3424.837 3424.837 3424.837 3424.837
 qs_energies                          5  5.8    0.074    0.074 3304.195 3304.195
 scf_env_do_scf                       5  6.8    0.015    0.015 3281.778 3281.778
 qs_ks_update_qs_env                 34  8.9    0.006    0.006 3253.499 3253.499
 scf_env_do_scf_inner_loop           29  7.9    0.050    0.050 2648.000 2648.000
 init_scf_loop                        5  7.8    0.033    0.033  633.762  633.762
 -------------------------------------------------------------------------------

 The number of warnings for this run is : 1
 
 -------------------------------------------------------------------------------
  **** **** ******  **  PROGRAM ENDED AT                 2023-04-05 16:17:55.832
 ***** ** ***  *** **   PROGRAM RAN ON                               eu-g5-002-3
 **    ****   ******    PROGRAM RAN BY                                 jbachmann
 ***** **    ** ** **   PROGRAM PROCESS ID                                 51990
  **** **  *******  **  PROGRAM STOPPED IN /cluster/home/jbachmann/Molecular-and
                                           -Materials-Modelling-FS2023/exercise7
                                           /B3LYP/TZVP
