 DBCSR| CPU Multiplication driver                                           BLAS (U)
 DBCSR| Multrec recursion limit                                              512 (U)
 DBCSR| Multiplication stack size                                           1000 (D)
 DBCSR| Maximum elements for images                                    UNLIMITED (U)
 DBCSR| Multiplicative factor virtual images                                   1 (U)
 DBCSR| Use multiplication densification                                       T (D)
 DBCSR| Multiplication size stacks                                             3 (U)
 DBCSR| Use memory pool for CPU allocation                                     F (U)
 DBCSR| OMP: Current number of threads                                         1
 DBCSR| OMP: Max number of threads                                             1
 DBCSR| Split modifier for TAS multiplication algorithm                  1.0E+00 (U)


  **** **** ******  **  PROGRAM STARTED AT               2023-04-05 08:49:52.147
 ***** ** ***  *** **   PROGRAM STARTED ON                           eu-g5-002-3
 **    ****   ******    PROGRAM STARTED BY                             jbachmann
 ***** **    ** ** **   PROGRAM PROCESS ID                                124920
  **** **  *******  **  PROGRAM STARTED IN /cluster/home/jbachmann/Molecular-and
                                           -Materials-Modelling-FS2023/exercise7
                                           /PBE/SZV

 CP2K| version string:                 CP2K version 2023.1 (Development Version)
 CP2K| source code revision number:                                  git:dc34ec9
 CP2K| cp2kflags: omp libint fftw3 libxc max_contr=4 spglib libvori libbqb      
 CP2K| is freely available from                            https://www.cp2k.org/
 CP2K| Program compiled at                         Mon Mar 27 23:22:21 CEST 2023
 CP2K| Program compiled on                                           eu-g5-025-4
 CP2K| Program compiled for                              Linux-gnu-x86_64-static
 CP2K| Data directory path      /cluster/apps/nss/gcc-6.3.0/cp2k/8.2/x86_64/data
 CP2K| Input file name                                                   H2O.inp

 GLOBAL| Force Environment number                                              1
 GLOBAL| Basis set file name                                        BASIS_MOLOPT
 GLOBAL| Potential file name                                      GTH_POTENTIALS
 GLOBAL| MM Potential file name                                     MM_POTENTIAL
 GLOBAL| Coordinate file name                                            H2O.xyz
 GLOBAL| Method name                                                        CP2K
 GLOBAL| Project name                                                        H2O
 GLOBAL| Run type                                                        GEO_OPT
 GLOBAL| FFT library                                                       FFTW3
 GLOBAL| Diagonalization library                                       ScaLAPACK
 GLOBAL| DGEMM library                                                      BLAS
 GLOBAL| Orthonormality check for eigenvectors                          DISABLED
 GLOBAL| Matrix multiplication library                                 ScaLAPACK
 GLOBAL| All-to-all communication in single precision                          F
 GLOBAL| FFTs using library dependent lengths                                  F
 GLOBAL| Grid backend                                                       AUTO
 GLOBAL| Global print level                                                  LOW
 GLOBAL| MPI I/O enabled                                                       T
 GLOBAL| Total number of message passing processes                             1
 GLOBAL| Number of threads for this process                                    1
 GLOBAL| This output is from process                                           0
 GLOBAL| Stack size for threads created by OpenMP (OMP_STACKSIZE)        default
 GLOBAL| CPU model name                          AMD EPYC 7742 64-Core Processor

 MEMORY| system memory details [Kb]
 MEMORY|                        rank 0           min           max       average
 MEMORY| MemTotal            525874016     525874016     525874016     525874016
 MEMORY| MemFree             498305480     498305480     498305480     498305480
 MEMORY| Buffers                     0             0             0             0
 MEMORY| Cached               15201408      15201408      15201408      15201408
 MEMORY| Slab                  2174620       2174620       2174620       2174620
 MEMORY| SReclaimable           915724        915724        915724        915724
 MEMORY| MemLikelyFree       514422612     514422612     514422612     514422612


 GENERATE|  Preliminary Number of Bonds generated:                             0
 GENERATE|  Achieved consistency in connectivity generation.

 *******************************************************************************
 *******************************************************************************
 **                                                                           **
 **     #####                         ##              ##                      **
 **    ##   ##            ##          ##              ##                      **
 **   ##     ##                       ##            ######                    **
 **   ##     ##  ##   ##  ##   #####  ##  ##   ####   ##    #####    #####    **
 **   ##     ##  ##   ##  ##  ##      ## ##   ##      ##   ##   ##  ##   ##   **
 **   ##  ## ##  ##   ##  ##  ##      ####     ###    ##   ######   ######    **
 **    ##  ###   ##   ##  ##  ##      ## ##      ##   ##   ##       ##        **
 **     #######   #####   ##   #####  ##  ##  ####    ##    #####   ##        **
 **           ##                                                    ##        **
 **                                                                           **
 **                                                ... make the atoms dance   **
 **                                                                           **
 **            Copyright (C) by CP2K developers group (2000-2023)             **
 **                      J. Chem. Phys. 152, 194103 (2020)                    **
 **                                                                           **
 *******************************************************************************


 TOTAL NUMBERS AND MAXIMUM NUMBERS

  Total number of            - Atomic kinds:                                   2
                             - Atoms:                                          3
                             - Shell sets:                                     3
                             - Shells:                                         4
                             - Primitive Cartesian functions:                 21
                             - Cartesian basis functions:                      6
                             - Spherical basis functions:                      6

  Maximum angular momentum of- Orbital basis functions:                        1
                             - Local part of the GTH pseudopotential:          2
                             - Non-local part of the GTH pseudopotential:      0


 SCF PARAMETERS         Density guess:                                   RESTART
                        --------------------------------------------------------
                        max_scf:                                              50
                        max_scf_history:                                       0
                        max_diis:                                              4
                        --------------------------------------------------------
                        eps_scf:                                        1.00E-04
                        eps_scf_history:                                0.00E+00
                        eps_diis:                                       1.00E-01
                        eps_eigval:                                     1.00E-05
                        --------------------------------------------------------
                        level_shift [a.u.]:                             0.000000
                        --------------------------------------------------------
                        Outer loop SCF in use 
                        No variables optimised in outer loop
                        eps_scf                                         1.00E-04
                        max_scf                                              500
                        No outer loop optimization
                        step_size                                       5.00E-01

 PW_GRID| Information for grid number                                          1
 PW_GRID| Cutoff [a.u.]                                                    200.0
 PW_GRID| spherical cutoff:                                                   NO
 PW_GRID|   Bounds   1            -96      95                Points:         192
 PW_GRID|   Bounds   2            -96      95                Points:         192
 PW_GRID|   Bounds   3            -96      95                Points:         192
 PW_GRID| Volume element (a.u.^3)  0.3218E-02     Volume (a.u.^3)     22775.6292
 PW_GRID| Grid span                                                    FULLSPACE

 PW_GRID| Information for grid number                                          2
 PW_GRID| Number of the reference grid                                         1
 PW_GRID| Cutoff [a.u.]                                                     66.7
 PW_GRID| spherical cutoff:                                                   NO
 PW_GRID|   Bounds   1            -54      53                Points:         108
 PW_GRID|   Bounds   2            -54      53                Points:         108
 PW_GRID|   Bounds   3            -54      53                Points:         108
 PW_GRID| Volume element (a.u.^3)  0.1808E-01     Volume (a.u.^3)     22775.6292
 PW_GRID| Grid span                                                    FULLSPACE

 PW_GRID| Information for grid number                                          3
 PW_GRID| Number of the reference grid                                         1
 PW_GRID| Cutoff [a.u.]                                                     22.2
 PW_GRID| spherical cutoff:                                                   NO
 PW_GRID|   Bounds   1            -32      31                Points:          64
 PW_GRID|   Bounds   2            -32      31                Points:          64
 PW_GRID|   Bounds   3            -32      31                Points:          64
 PW_GRID| Volume element (a.u.^3)  0.8688E-01     Volume (a.u.^3)     22775.6292
 PW_GRID| Grid span                                                    FULLSPACE

 PW_GRID| Information for grid number                                          4
 PW_GRID| Number of the reference grid                                         1
 PW_GRID| Cutoff [a.u.]                                                      7.4
 PW_GRID| spherical cutoff:                                                   NO
 PW_GRID|   Bounds   1            -18      17                Points:          36
 PW_GRID|   Bounds   2            -18      17                Points:          36
 PW_GRID|   Bounds   3            -18      17                Points:          36
 PW_GRID| Volume element (a.u.^3)  0.4882         Volume (a.u.^3)     22775.6292
 PW_GRID| Grid span                                                    FULLSPACE

 POISSON| Solver                                                         WAVELET
 POISSON| Wavelet| Scaling function                                           40
 POISSON| Periodicity                                                       NONE

 RS_GRID| Information for grid number                                          1
 RS_GRID|   Bounds   1            -96      95                Points:         192
 RS_GRID|   Bounds   2            -96      95                Points:         192
 RS_GRID|   Bounds   3            -96      95                Points:         192

 RS_GRID| Information for grid number                                          2
 RS_GRID|   Bounds   1            -54      53                Points:         108
 RS_GRID|   Bounds   2            -54      53                Points:         108
 RS_GRID|   Bounds   3            -54      53                Points:         108

 RS_GRID| Information for grid number                                          3
 RS_GRID|   Bounds   1            -32      31                Points:          64
 RS_GRID|   Bounds   2            -32      31                Points:          64
 RS_GRID|   Bounds   3            -32      31                Points:          64

 RS_GRID| Information for grid number                                          4
 RS_GRID|   Bounds   1            -18      17                Points:          36
 RS_GRID|   Bounds   2            -18      17                Points:          36
 RS_GRID|   Bounds   3            -18      17                Points:          36

 BFGS| Use rational function optimization for step estimation:                NO
 BFGS| Use model Hessian for initial guess:                                  YES
 BFGS| Restart Hessian:                                                       NO
 BFGS| Trust radius:                                                       0.472

 *******************************************************************************
 ***                     STARTING GEOMETRY OPTIMIZATION                      ***
 ***                                   BFGS                                  ***
 *******************************************************************************

 Number of electrons:                                                          8
 Number of occupied orbitals:                                                  4
 Number of molecular orbitals:                                                 4

 Number of orbital functions:                                                  6
 Number of independent orbital functions:                                      6

 Extrapolation method: initial_guess

 *** WARNING in qs_initial_guess.F:305 :: User requested to restart the    ***
 *** wavefunction from the file named: H2O-RESTART.wfn. This file does not ***
 *** exist. Please check the existence of the file or change properly the  ***
 *** value of the keyword WFN_RESTART_FILE_NAME. Calculation continues     ***
 *** using ATOMIC GUESS.                                                   ***



 SCF WAVEFUNCTION OPTIMIZATION

  ----------------------------------- OT ---------------------------------------
  Minimizer      : DIIS                : direct inversion
                                         in the iterative subspace
                                         using   7 DIIS vectors
                                         safer DIIS on
  Preconditioner : FULL_SINGLE_INVERSE : inversion of 
                                         H + eS - 2*(Sc)(c^T*H*c+const)(Sc)^T
  Precond_solver : DEFAULT
  stepsize       :    0.08000000                  energy_gap     :    0.08000000
  eps_taylor     :   0.10000E-15                  max_taylor     :             4
  ----------------------------------- OT ---------------------------------------

  Step     Update method      Time    Convergence         Total energy    Change
  ------------------------------------------------------------------------------
     1 OT DIIS     0.80E-01    9.1     0.83308873       -16.1679721672 -1.62E+01
     2 OT DIIS     0.80E-01    7.7     0.56362304       -16.5150378430 -3.47E-01
     3 OT DIIS     0.80E-01    7.7     0.16839934       -16.7249163937 -2.10E-01
     4 OT DIIS     0.80E-01    7.7     0.14240459       -16.7649941730 -4.01E-02
     5 OT DIIS     0.80E-01    7.8     0.15394955       -16.8307838746 -6.58E-02
     6 OT DIIS     0.80E-01    7.8     0.12259932       -16.8492753685 -1.85E-02
     7 OT DIIS     0.80E-01    7.7     0.08682383       -16.9012750409 -5.20E-02
     8 OT DIIS     0.80E-01    7.6     0.33042307       -16.8409769904  6.03E-02
     9 OT SD       0.80E-01    7.6     0.03490315       -16.9175341745 -7.66E-02
    10 OT DIIS     0.80E-01    7.6     0.02066469       -16.9192786097 -1.74E-03
    11 OT DIIS     0.80E-01    7.6     0.03223797       -16.9194953393 -2.17E-04
    12 OT SD       0.80E-01    7.6     0.00991357       -16.9202869667 -7.92E-04
    13 OT DIIS     0.80E-01    7.6     0.00843781       -16.9203697024 -8.27E-05
    14 OT DIIS     0.80E-01    7.7     0.01336147       -16.9202290678  1.41E-04
    15 OT DIIS     0.80E-01    7.7     0.00226231       -16.9205171057 -2.88E-04
    16 OT DIIS     0.80E-01    7.7     0.00044474       -16.9205233313 -6.23E-06
    17 OT DIIS     0.80E-01    7.7     0.00034753       -16.9205235628 -2.32E-07
    18 OT DIIS     0.80E-01    7.7     0.00004894       -16.9205237031 -1.40E-07

  *** SCF run converged in    18 steps ***


  Electronic density on regular grids:         -7.6633633127        0.3366366873
  Core density on regular grids:                8.0000000000       -0.0000000000
  Hard and soft densities (Lebedev):          -12.8159480796      -12.4793111378
  Total Rho_soft + Rho1_hard - Rho1_soft       -8.0000002544
  Total charge density (r-space):              -0.0000002544
  Total Rho_soft + Rho0_soft (g-space):        -0.0000018205

  Overlap energy of the core charge distribution:               0.00000000000000
  Self energy of the core charge distribution:                -44.34715499673765
  Core Hamiltonian energy:                                     13.19433817280752
  Hartree energy:                                              20.01612204345317
  Exchange-correlation energy:                                 -3.79239758191735

  GAPW| Exc from hard and soft atomic rho1:                    -0.33985306829487
  GAPW| local Eh = 1 center integrals:                         -1.65157827242797

  Total energy:                                               -16.92052370311715

  outer SCF iter =    1 RMS gradient =   0.49E-04 energy =        -16.9205237031
  outer SCF loop converged in   1 iterations or   18 steps

  
  Eigenvalues of the occupied subspace spin            1
 ---------------------------------------------
      -0.68789664     -0.28565398     -0.14288893     -0.10701357
 Fermi Energy [eV] :   -2.911987
  
  Lowest Eigenvalues of the unoccupied subspace spin            1
 -----------------------------------------------------
 OT| Eigensolver reached convergence in 9 iterations
      -0.02197265
  
 HOMO - LUMO gap [eV] :    2.314081

 ENERGY| Total FORCE_EVAL ( QS ) energy [a.u.]:              -16.920523704090286

 --------  Informations at step =     0 ------------
  Optimization Method        =                 BFGS
  Total Energy               =       -16.9205237041
  Used time                  =              150.880
 ---------------------------------------------------

 --------------------------
 OPTIMIZATION STEP:      1
 --------------------------

  Step is scaled; Scaling factor =  0.45133

 Number of electrons:                                                          8
 Number of occupied orbitals:                                                  4
 Number of molecular orbitals:                                                 4

 Number of orbital functions:                                                  6
 Number of independent orbital functions:                                      6

 Extrapolation method: ASPC


 SCF WAVEFUNCTION OPTIMIZATION

  ----------------------------------- OT ---------------------------------------
  Minimizer      : DIIS                : direct inversion
                                         in the iterative subspace
                                         using   7 DIIS vectors
                                         safer DIIS on
  Preconditioner : FULL_SINGLE_INVERSE : inversion of 
                                         H + eS - 2*(Sc)(c^T*H*c+const)(Sc)^T
  Precond_solver : DEFAULT
  stepsize       :    0.08000000                  energy_gap     :    0.08000000
  eps_taylor     :   0.10000E-15                  max_taylor     :             4
  ----------------------------------- OT ---------------------------------------

  Step     Update method      Time    Convergence         Total energy    Change
  ------------------------------------------------------------------------------
     1 OT DIIS     0.80E-01    7.0     0.05502104       -17.0324623092 -1.70E+01
     2 OT DIIS     0.80E-01    7.7     0.02063519       -17.0362814321 -3.82E-03
     3 OT DIIS     0.80E-01    7.7     0.00901997       -17.0370123157 -7.31E-04
     4 OT DIIS     0.80E-01    7.7     0.00546116       -17.0371665901 -1.54E-04
     5 OT DIIS     0.80E-01    7.7     0.00041666       -17.0372628712 -9.63E-05
     6 OT DIIS     0.80E-01    7.7     0.00009074       -17.0372632410 -3.70E-07

  *** SCF run converged in     6 steps ***


  Electronic density on regular grids:         -7.6459156255        0.3540843745
  Core density on regular grids:                8.0000000000       -0.0000000000
  Hard and soft densities (Lebedev):          -18.0767687015      -17.7226841314
  Total Rho_soft + Rho1_hard - Rho1_soft       -8.0000001957
  Total charge density (r-space):              -0.0000001957
  Total Rho_soft + Rho0_soft (g-space):        -0.0000018377

  Overlap energy of the core charge distribution:               0.00000000000008
  Self energy of the core charge distribution:                -44.34715499673765
  Core Hamiltonian energy:                                     13.15767077908410
  Hartree energy:                                              19.93318499603417
  Exchange-correlation energy:                                 -3.82118647555441

  GAPW| Exc from hard and soft atomic rho1:                    -0.35736731513458
  GAPW| local Eh = 1 center integrals:                         -1.60241022872124

  Total energy:                                               -17.03726324102952

  outer SCF iter =    1 RMS gradient =   0.91E-04 energy =        -17.0372632410
  outer SCF loop converged in   1 iterations or    6 steps

  
  Eigenvalues of the occupied subspace spin            1
 ---------------------------------------------
      -0.73497627     -0.34677111     -0.16247053     -0.12705729
 Fermi Energy [eV] :   -3.457405
  
  Lowest Eigenvalues of the unoccupied subspace spin            1
 -----------------------------------------------------
 OT| Eigensolver reached convergence in 7 iterations
       0.06011062
  
 HOMO - LUMO gap [eV] :    5.093098

 ENERGY| Total FORCE_EVAL ( QS ) energy [a.u.]:              -17.037263258613951

 --------  Informations at step =     1 ------------
  Optimization Method        =                 BFGS
  Total Energy               =       -17.0372632586
  Real energy change         =        -0.1167395545
  Predicted change in energy =        -0.0864700883
  Scaling factor             =         0.4513273412
  Step size                  =         0.4724315332
  Trust radius               =         0.4724315332
  Decrease in energy         =                  YES
  Used time                  =               56.888

  Convergence check :
  Max. step size             =         0.4724315332
  Conv. limit for step size  =         0.0100000000
  Convergence in step size   =                   NO
  RMS step size              =         0.2132062256
  Conv. limit for RMS step   =         0.0030000000
  Convergence in RMS step    =                   NO
  Max. gradient              =         0.1325403152
  Conv. limit for gradients  =         0.0010000000
  Conv. for gradients        =                   NO
  RMS gradient               =         0.0628681599
  Conv. limit for RMS grad.  =         0.0003000000
  Conv. for gradients        =                   NO
 ---------------------------------------------------
 Estimated peak process memory after this step [MiB]                        1792

 --------------------------
 OPTIMIZATION STEP:      2
 --------------------------

  Step is scaled; Scaling factor =  0.00043

 Number of electrons:                                                          8
 Number of occupied orbitals:                                                  4
 Number of molecular orbitals:                                                 4

 Number of orbital functions:                                                  6
 Number of independent orbital functions:                                      6

 Extrapolation method: ASPC


 SCF WAVEFUNCTION OPTIMIZATION

  ----------------------------------- OT ---------------------------------------
  Minimizer      : DIIS                : direct inversion
                                         in the iterative subspace
                                         using   7 DIIS vectors
                                         safer DIIS on
  Preconditioner : FULL_SINGLE_INVERSE : inversion of 
                                         H + eS - 2*(Sc)(c^T*H*c+const)(Sc)^T
  Precond_solver : DEFAULT
  stepsize       :    0.08000000                  energy_gap     :    0.08000000
  eps_taylor     :   0.10000E-15                  max_taylor     :             4
  ----------------------------------- OT ---------------------------------------

  Step     Update method      Time    Convergence         Total energy    Change
  ------------------------------------------------------------------------------
     1 OT DIIS     0.80E-01    6.9     0.08035776       -17.0933212726 -1.71E+01
     2 OT DIIS     0.80E-01    7.6     0.05719874       -17.1038950085 -1.06E-02
     3 OT DIIS     0.80E-01    7.6     0.01366934       -17.1150902068 -1.12E-02
     4 OT DIIS     0.80E-01    7.6     0.00294306       -17.1156471020 -5.57E-04
     5 OT DIIS     0.80E-01    7.7     0.00121331       -17.1156649602 -1.79E-05
     6 OT DIIS     0.80E-01    7.6     0.00036479       -17.1156679132 -2.95E-06
     7 OT DIIS     0.80E-01    7.5     0.00093927       -17.1156667695  1.14E-06
     8 OT DIIS     0.80E-01    7.5     0.00050817       -17.1156677609 -9.91E-07
     9 OT DIIS     0.80E-01    7.6     0.00002477       -17.1156681821 -4.21E-07

  *** SCF run converged in     9 steps ***


  Electronic density on regular grids:         -7.5440442423        0.4559557577
  Core density on regular grids:                8.0000000000       -0.0000000000
  Hard and soft densities (Lebedev):          -23.5887252082      -23.1327694624
  Total Rho_soft + Rho1_hard - Rho1_soft       -7.9999999881
  Total charge density (r-space):               0.0000000119
  Total Rho_soft + Rho0_soft (g-space):        -0.0000016675

  Overlap energy of the core charge distribution:               0.00000011776766
  Self energy of the core charge distribution:                -44.34715499673765
  Core Hamiltonian energy:                                     13.48185194255434
  Hartree energy:                                              19.39953414810017
  Exchange-correlation energy:                                 -3.84399486381116

  GAPW| Exc from hard and soft atomic rho1:                    -0.46120297332673
  GAPW| local Eh = 1 center integrals:                         -1.34470155663771

  Total energy:                                               -17.11566818209108

  outer SCF iter =    1 RMS gradient =   0.25E-04 energy =        -17.1156681821
  outer SCF loop converged in   1 iterations or    9 steps

  
  Eigenvalues of the occupied subspace spin            1
 ---------------------------------------------
      -0.84136050     -0.48830955     -0.17778507     -0.17354588
 Fermi Energy [eV] :   -4.722423
  
  Lowest Eigenvalues of the unoccupied subspace spin            1
 -----------------------------------------------------
 OT| Eigensolver reached convergence in 9 iterations
       0.23124713
  
 HOMO - LUMO gap [eV] :   11.014978

 ENERGY| Total FORCE_EVAL ( QS ) energy [a.u.]:              -17.115668183370179

 --------  Informations at step =     2 ------------
  Optimization Method        =                 BFGS
  Total Energy               =       -17.1156681834
  Real energy change         =        -0.0784049248
  Predicted change in energy =        -0.1405031982
  Scaling factor             =         0.0004301557
  Step size                  =         0.4724315332
  Trust radius               =         0.4724315332
  Decrease in energy         =                  YES
  Used time                  =               79.043

  Convergence check :
  Max. step size             =         0.4724315332
  Conv. limit for step size  =         0.0100000000
  Convergence in step size   =                   NO
  RMS step size              =         0.2495801396
  Conv. limit for RMS step   =         0.0030000000
  Convergence in RMS step    =                   NO
  Max. gradient              =         0.1419104700
  Conv. limit for gradients  =         0.0010000000
  Conv. for gradients        =                   NO
  RMS gradient               =         0.0620567557
  Conv. limit for RMS grad.  =         0.0003000000
  Conv. for gradients        =                   NO
 ---------------------------------------------------
 Estimated peak process memory after this step [MiB]                        1792

 --------------------------
 OPTIMIZATION STEP:      3
 --------------------------

  Step is scaled; Scaling factor =  0.45848

 Number of electrons:                                                          8
 Number of occupied orbitals:                                                  4
 Number of molecular orbitals:                                                 4

 Number of orbital functions:                                                  6
 Number of independent orbital functions:                                      6

 Extrapolation method: ASPC


 SCF WAVEFUNCTION OPTIMIZATION

  ----------------------------------- OT ---------------------------------------
  Minimizer      : DIIS                : direct inversion
                                         in the iterative subspace
                                         using   7 DIIS vectors
                                         safer DIIS on
  Preconditioner : FULL_SINGLE_INVERSE : inversion of 
                                         H + eS - 2*(Sc)(c^T*H*c+const)(Sc)^T
  Precond_solver : DEFAULT
  stepsize       :    0.08000000                  energy_gap     :    0.08000000
  eps_taylor     :   0.10000E-15                  max_taylor     :             4
  ----------------------------------- OT ---------------------------------------

  Step     Update method      Time    Convergence         Total energy    Change
  ------------------------------------------------------------------------------
     1 OT DIIS     0.80E-01    6.9     0.26939137       -16.9410170910 -1.69E+01
     2 OT DIIS     0.80E-01    7.5     0.18382281       -17.0586320149 -1.18E-01
     3 OT DIIS     0.80E-01    7.5     0.06809421       -17.1421477493 -8.35E-02
     4 OT DIIS     0.80E-01    7.5     0.02719945       -17.1473898984 -5.24E-03
     5 OT DIIS     0.80E-01    7.5     0.02424696       -17.1476680149 -2.78E-04
     6 OT DIIS     0.80E-01    7.5     0.00610079       -17.1485298836 -8.62E-04
     7 OT DIIS     0.80E-01    7.5     0.00505386       -17.1485404372 -1.06E-05
     8 OT DIIS     0.80E-01    7.6     0.00151085       -17.1485675647 -2.71E-05
     9 OT DIIS     0.80E-01    7.5     0.00109398       -17.1485685163 -9.52E-07
    10 OT DIIS     0.80E-01    7.5     0.00002826       -17.1485703990 -1.88E-06

  *** SCF run converged in    10 steps ***


  Electronic density on regular grids:         -7.6319304864        0.3680695136
  Core density on regular grids:                8.0000000000       -0.0000000000
  Hard and soft densities (Lebedev):          -24.4309663811      -24.0628969518
  Total Rho_soft + Rho1_hard - Rho1_soft       -7.9999999157
  Total charge density (r-space):               0.0000000843
  Total Rho_soft + Rho0_soft (g-space):        -0.0000015849

  Overlap energy of the core charge distribution:               0.00000005381076
  Self energy of the core charge distribution:                -44.34715499673765
  Core Hamiltonian energy:                                     13.21370346267211
  Hartree energy:                                              19.82997698327787
  Exchange-correlation energy:                                 -3.90495521427958

  GAPW| Exc from hard and soft atomic rho1:                    -0.37038491069407
  GAPW| local Eh = 1 center integrals:                         -1.56975577703053

  Total energy:                                               -17.14857039898108

  outer SCF iter =    1 RMS gradient =   0.28E-04 energy =        -17.1485703990
  outer SCF loop converged in   1 iterations or   10 steps

  
  Eigenvalues of the occupied subspace spin            1
 ---------------------------------------------
      -0.89194041     -0.44457534     -0.25647615     -0.19900882
 Fermi Energy [eV] :   -5.415306
  
  Lowest Eigenvalues of the unoccupied subspace spin            1
 -----------------------------------------------------
 OT| Eigensolver reached convergence in 9 iterations
       0.30671421
  
 HOMO - LUMO gap [eV] :   13.761424

 ENERGY| Total FORCE_EVAL ( QS ) energy [a.u.]:              -17.148570400572680

 --------  Informations at step =     3 ------------
  Optimization Method        =                 BFGS
  Total Energy               =       -17.1485704006
  Real energy change         =        -0.0329022172
  Predicted change in energy =        -0.0557336489
  Scaling factor             =         0.4584808786
  Step size                  =         0.4724315332
  Trust radius               =         0.4724315332
  Decrease in energy         =                  YES
  Used time                  =               86.069

  Convergence check :
  Max. step size             =         0.4724315332
  Conv. limit for step size  =         0.0100000000
  Convergence in step size   =                   NO
  RMS step size              =         0.2467859426
  Conv. limit for RMS step   =         0.0030000000
  Convergence in RMS step    =                   NO
  Max. gradient              =         0.0991810534
  Conv. limit for gradients  =         0.0010000000
  Conv. for gradients        =                   NO
  RMS gradient               =         0.0453818325
  Conv. limit for RMS grad.  =         0.0003000000
  Conv. for gradients        =                   NO
 ---------------------------------------------------
 Estimated peak process memory after this step [MiB]                        1792

 --------------------------
 OPTIMIZATION STEP:      4
 --------------------------

  Step is scaled; Scaling factor =  0.62275

 Number of electrons:                                                          8
 Number of occupied orbitals:                                                  4
 Number of molecular orbitals:                                                 4

 Number of orbital functions:                                                  6
 Number of independent orbital functions:                                      6

 Extrapolation method: ASPC


 SCF WAVEFUNCTION OPTIMIZATION

  ----------------------------------- OT ---------------------------------------
  Minimizer      : DIIS                : direct inversion
                                         in the iterative subspace
                                         using   7 DIIS vectors
                                         safer DIIS on
  Preconditioner : FULL_SINGLE_INVERSE : inversion of 
                                         H + eS - 2*(Sc)(c^T*H*c+const)(Sc)^T
  Precond_solver : DEFAULT
  stepsize       :    0.08000000                  energy_gap     :    0.08000000
  eps_taylor     :   0.10000E-15                  max_taylor     :             4
  ----------------------------------- OT ---------------------------------------

  Step     Update method      Time    Convergence         Total energy    Change
  ------------------------------------------------------------------------------
     1 OT DIIS     0.80E-01    6.9     0.29335145       -16.9613847185 -1.70E+01
     2 OT DIIS     0.80E-01    7.7     0.08724662       -17.0663177854 -1.05E-01
     3 OT DIIS     0.80E-01    7.7     0.02429944       -17.0783324180 -1.20E-02
     4 OT DIIS     0.80E-01    7.7     0.01051305       -17.0797384162 -1.41E-03
     5 OT DIIS     0.80E-01    7.6     0.00752116       -17.0799884651 -2.50E-04
     6 OT DIIS     0.80E-01    7.7     0.00071628       -17.0800836703 -9.52E-05
     7 OT DIIS     0.80E-01    7.7     0.00040368       -17.0800843416 -6.71E-07
     8 OT DIIS     0.80E-01    8.1     0.00104889       -17.0800825140  1.83E-06
     9 OT DIIS     0.80E-01    8.2     0.00096398       -17.0800828490 -3.35E-07
    10 OT DIIS     0.80E-01    7.6     0.00001195       -17.0800846308 -1.78E-06

  *** SCF run converged in    10 steps ***


  Electronic density on regular grids:         -7.6855098104        0.3144901896
  Core density on regular grids:                8.0000000000       -0.0000000000
  Hard and soft densities (Lebedev):          -20.3144945442      -20.0000041904
  Total Rho_soft + Rho1_hard - Rho1_soft       -8.0000001642
  Total charge density (r-space):              -0.0000001642
  Total Rho_soft + Rho0_soft (g-space):        -0.0000017251

  Overlap energy of the core charge distribution:               0.00000000000269
  Self energy of the core charge distribution:                -44.34715499673765
  Core Hamiltonian energy:                                     12.99752163005595
  Hartree energy:                                              20.15519665913643
  Exchange-correlation energy:                                 -3.85703568358622

  GAPW| Exc from hard and soft atomic rho1:                    -0.31587095864175
  GAPW| local Eh = 1 center integrals:                         -1.71274128104886

  Total energy:                                               -17.08008463081941

  outer SCF iter =    1 RMS gradient =   0.12E-04 energy =        -17.0800846308
  outer SCF loop converged in   1 iterations or   10 steps

  
  Eigenvalues of the occupied subspace spin            1
 ---------------------------------------------
      -0.80189376     -0.30395615     -0.29794400     -0.16875070
 Fermi Energy [eV] :   -4.591940
  
  Lowest Eigenvalues of the unoccupied subspace spin            1
 -----------------------------------------------------
 OT| Eigensolver reached convergence in 11 iterations
       0.14012673
  
 HOMO - LUMO gap [eV] :    8.404982

 ENERGY| Total FORCE_EVAL ( QS ) energy [a.u.]:              -17.080084631102149

 --------  Informations at step =     4 ------------
  Optimization Method        =                 BFGS
  Total Energy               =       -17.0800846311
  Real energy change         =         0.0684857695
  Predicted change in energy =        -0.0206322164
  Scaling factor             =         0.6227461755
  Step size                  =         0.4724315332
  Trust radius               =         0.4724315332
  Decrease in energy         =                   NO
  Used time                  =               88.606

  Convergence check :
  Max. step size             =         0.4724315332
  Conv. limit for step size  =         0.0100000000
  Convergence in step size   =                   NO
  RMS step size              =         0.2094505224
  Conv. limit for RMS step   =         0.0030000000
  Convergence in RMS step    =                   NO
  Max. gradient              =         0.1947942087
  Conv. limit for gradients  =         0.0010000000
  Conv. for gradients        =                   NO
  RMS gradient               =         0.0813169126
  Conv. limit for RMS grad.  =         0.0003000000
  Conv. for gradients        =                   NO
 ---------------------------------------------------
 Estimated peak process memory after this step [MiB]                        1792

 --------------------------
 OPTIMIZATION STEP:      5
 --------------------------

  Step is scaled; Scaling factor =  0.98458

 Number of electrons:                                                          8
 Number of occupied orbitals:                                                  4
 Number of molecular orbitals:                                                 4

 Number of orbital functions:                                                  6
 Number of independent orbital functions:                                      6

 Extrapolation method: ASPC


 SCF WAVEFUNCTION OPTIMIZATION

  ----------------------------------- OT ---------------------------------------
  Minimizer      : DIIS                : direct inversion
                                         in the iterative subspace
                                         using   7 DIIS vectors
                                         safer DIIS on
  Preconditioner : FULL_SINGLE_INVERSE : inversion of 
                                         H + eS - 2*(Sc)(c^T*H*c+const)(Sc)^T
  Precond_solver : DEFAULT
  stepsize       :    0.08000000                  energy_gap     :    0.08000000
  eps_taylor     :   0.10000E-15                  max_taylor     :             4
  ----------------------------------- OT ---------------------------------------

  Step     Update method      Time    Convergence         Total energy    Change
  ------------------------------------------------------------------------------
     1 OT DIIS     0.80E-01    7.0     0.13510505       -17.0923893643 -1.71E+01
     2 OT DIIS     0.80E-01    7.7     0.09337966       -17.1218754557 -2.95E-02
     3 OT DIIS     0.80E-01    7.7     0.02407778       -17.1493301040 -2.75E-02
     4 OT DIIS     0.80E-01    7.6     0.00776885       -17.1509710316 -1.64E-03
     5 OT DIIS     0.80E-01    7.7     0.00141597       -17.1511388671 -1.68E-04
     6 OT DIIS     0.80E-01    7.5     0.00106874       -17.1511408160 -1.95E-06
     7 OT DIIS     0.80E-01    7.6     0.00022993       -17.1511432762 -2.46E-06
     8 OT DIIS     0.80E-01    7.6     0.00016432       -17.1511433402 -6.40E-08
     9 OT DIIS     0.80E-01    7.6     0.00001446       -17.1511433982 -5.80E-08

  *** SCF run converged in     9 steps ***


  Electronic density on regular grids:         -7.6350208898        0.3649791102
  Core density on regular grids:                8.0000000000       -0.0000000000
  Hard and soft densities (Lebedev):          -24.6913448411      -24.3263658521
  Total Rho_soft + Rho1_hard - Rho1_soft       -7.9999998788
  Total charge density (r-space):               0.0000001212
  Total Rho_soft + Rho0_soft (g-space):        -0.0000014504

  Overlap energy of the core charge distribution:               0.00000000879158
  Self energy of the core charge distribution:                -44.34715499673765
  Core Hamiltonian energy:                                     13.18083913977669
  Hartree energy:                                              19.85276895093654
  Exchange-correlation energy:                                 -3.89276660738809

  GAPW| Exc from hard and soft atomic rho1:                    -0.36721806147325
  GAPW| local Eh = 1 center integrals:                         -1.57761183206194

  Total energy:                                               -17.15114339815614

  outer SCF iter =    1 RMS gradient =   0.14E-04 energy =        -17.1511433982
  outer SCF loop converged in   1 iterations or    9 steps

  
  Eigenvalues of the occupied subspace spin            1
 ---------------------------------------------
      -0.86755957     -0.43275723     -0.24565299     -0.18941855
 Fermi Energy [eV] :   -5.154341
  
  Lowest Eigenvalues of the unoccupied subspace spin            1
 -----------------------------------------------------
 OT| Eigensolver reached convergence in 9 iterations
       0.28812206
  
 HOMO - LUMO gap [eV] :   12.994541

 ENERGY| Total FORCE_EVAL ( QS ) energy [a.u.]:              -17.151143398542928

 --------  Informations at step =     5 ------------
  Optimization Method        =                 BFGS
  Total Energy               =       -17.1511433985
  Real energy change         =        -0.0710587674
  Predicted change in energy =        -0.0637119620
  Scaling factor             =         0.9845842014
  Step size                  =         0.4724315332
  Trust radius               =         0.4724315332
  Decrease in energy         =                  YES
  Used time                  =               79.337

  Convergence check :
  Max. step size             =         0.4724315332
  Conv. limit for step size  =         0.0100000000
  Convergence in step size   =                   NO
  RMS step size              =         0.2102006695
  Conv. limit for RMS step   =         0.0030000000
  Convergence in RMS step    =                   NO
  Max. gradient              =         0.0535486722
  Conv. limit for gradients  =         0.0010000000
  Conv. for gradients        =                   NO
  RMS gradient               =         0.0272311082
  Conv. limit for RMS grad.  =         0.0003000000
  Conv. for gradients        =                   NO
 ---------------------------------------------------
 Estimated peak process memory after this step [MiB]                        1792

 --------------------------
 OPTIMIZATION STEP:      6
 --------------------------

 Number of electrons:                                                          8
 Number of occupied orbitals:                                                  4
 Number of molecular orbitals:                                                 4

 Number of orbital functions:                                                  6
 Number of independent orbital functions:                                      6

 Extrapolation method: ASPC


 SCF WAVEFUNCTION OPTIMIZATION

  ----------------------------------- OT ---------------------------------------
  Minimizer      : DIIS                : direct inversion
                                         in the iterative subspace
                                         using   7 DIIS vectors
                                         safer DIIS on
  Preconditioner : FULL_SINGLE_INVERSE : inversion of 
                                         H + eS - 2*(Sc)(c^T*H*c+const)(Sc)^T
  Precond_solver : DEFAULT
  stepsize       :    0.08000000                  energy_gap     :    0.08000000
  eps_taylor     :   0.10000E-15                  max_taylor     :             4
  ----------------------------------- OT ---------------------------------------

  Step     Update method      Time    Convergence         Total energy    Change
  ------------------------------------------------------------------------------
     1 OT DIIS     0.80E-01    8.0     0.18437729       -17.0339087110 -1.70E+01
     2 OT DIIS     0.80E-01   10.1     0.13247301       -17.0898377545 -5.59E-02
     3 OT DIIS     0.80E-01    7.8     0.02523889       -17.1509646153 -6.11E-02
     4 OT DIIS     0.80E-01    7.8     0.01113739       -17.1525169097 -1.55E-03
     5 OT DIIS     0.80E-01    7.8     0.00132591       -17.1528211680 -3.04E-04
     6 OT DIIS     0.80E-01    7.6     0.00062605       -17.1528235045 -2.34E-06
     7 OT DIIS     0.80E-01    7.6     0.00032724       -17.1528239297 -4.25E-07
     8 OT DIIS     0.80E-01    7.6     0.00025066       -17.1528239967 -6.69E-08
     9 OT DIIS     0.80E-01    7.7     0.00004262       -17.1528240868 -9.01E-08

  *** SCF run converged in     9 steps ***


  Electronic density on regular grids:         -7.6253100579        0.3746899421
  Core density on regular grids:                8.0000000000       -0.0000000000
  Hard and soft densities (Lebedev):          -24.7033583546      -24.3286685683
  Total Rho_soft + Rho1_hard - Rho1_soft       -7.9999998442
  Total charge density (r-space):               0.0000001558
  Total Rho_soft + Rho0_soft (g-space):        -0.0000014609

  Overlap energy of the core charge distribution:               0.00000003900592
  Self energy of the core charge distribution:                -44.34715499673765
  Core Hamiltonian energy:                                     13.24209823975630
  Hartree energy:                                              19.79124894408180
  Exchange-correlation energy:                                 -3.90903878228384

  GAPW| Exc from hard and soft atomic rho1:                    -0.37718571579824
  GAPW| local Eh = 1 center integrals:                         -1.55279181481155

  Total energy:                                               -17.15282408678726

  outer SCF iter =    1 RMS gradient =   0.43E-04 energy =        -17.1528240868
  outer SCF loop converged in   1 iterations or    9 steps

  
  Eigenvalues of the occupied subspace spin            1
 ---------------------------------------------
      -0.90076445     -0.45985573     -0.25559036     -0.20322641
 Fermi Energy [eV] :   -5.530072
  
  Lowest Eigenvalues of the unoccupied subspace spin            1
 -----------------------------------------------------
 OT| Eigensolver reached convergence in 7 iterations
       0.36529596
  
 HOMO - LUMO gap [eV] :   15.470280

 ENERGY| Total FORCE_EVAL ( QS ) energy [a.u.]:              -17.152824089497848

 --------  Informations at step =     6 ------------
  Optimization Method        =                 BFGS
  Total Energy               =       -17.1528240895
  Real energy change         =        -0.0016806910
  Predicted change in energy =        -0.0058940655
  Scaling factor             =         0.9845842014
  Step size                  =         0.1224281240
  Trust radius               =         0.4724315332
  Decrease in energy         =                  YES
  Used time                  =               83.174

  Convergence check :
  Max. step size             =         0.1224281240
  Conv. limit for step size  =         0.0100000000
  Convergence in step size   =                   NO
  RMS step size              =         0.0670823509
  Conv. limit for RMS step   =         0.0030000000
  Convergence in RMS step    =                   NO
  Max. gradient              =         0.0416528042
  Conv. limit for gradients  =         0.0010000000
  Conv. for gradients        =                   NO
  RMS gradient               =         0.0246569915
  Conv. limit for RMS grad.  =         0.0003000000
  Conv. for gradients        =                   NO
 ---------------------------------------------------
 Estimated peak process memory after this step [MiB]                        1792

 --------------------------
 OPTIMIZATION STEP:      7
 --------------------------

 Number of electrons:                                                          8
 Number of occupied orbitals:                                                  4
 Number of molecular orbitals:                                                 4

 Number of orbital functions:                                                  6
 Number of independent orbital functions:                                      6

 Extrapolation method: ASPC


 SCF WAVEFUNCTION OPTIMIZATION

  ----------------------------------- OT ---------------------------------------
  Minimizer      : DIIS                : direct inversion
                                         in the iterative subspace
                                         using   7 DIIS vectors
                                         safer DIIS on
  Preconditioner : FULL_SINGLE_INVERSE : inversion of 
                                         H + eS - 2*(Sc)(c^T*H*c+const)(Sc)^T
  Precond_solver : DEFAULT
  stepsize       :    0.08000000                  energy_gap     :    0.08000000
  eps_taylor     :   0.10000E-15                  max_taylor     :             4
  ----------------------------------- OT ---------------------------------------

  Step     Update method      Time    Convergence         Total energy    Change
  ------------------------------------------------------------------------------
     1 OT DIIS     0.80E-01    6.8     0.14559181       -17.0839335784 -1.71E+01
     2 OT DIIS     0.80E-01    7.7     0.10175410       -17.1183112866 -3.44E-02
     3 OT DIIS     0.80E-01    7.9     0.02617498       -17.1527622074 -3.45E-02
     4 OT DIIS     0.80E-01    7.8     0.00286418       -17.1549519171 -2.19E-03
     5 OT DIIS     0.80E-01    7.8     0.00215889       -17.1549619981 -1.01E-05
     6 OT DIIS     0.80E-01    7.6     0.00034692       -17.1549740888 -1.21E-05
     7 OT DIIS     0.80E-01    7.6     0.00015852       -17.1549744036 -3.15E-07
     8 OT DIIS     0.80E-01    7.5     0.00001282       -17.1549744450 -4.14E-08

  *** SCF run converged in     8 steps ***


  Electronic density on regular grids:         -7.6339608397        0.3660391603
  Core density on regular grids:                8.0000000000       -0.0000000000
  Hard and soft densities (Lebedev):          -24.9794084751      -24.6133694755
  Total Rho_soft + Rho1_hard - Rho1_soft       -7.9999998393
  Total charge density (r-space):               0.0000001607
  Total Rho_soft + Rho0_soft (g-space):        -0.0000014570

  Overlap energy of the core charge distribution:               0.00000000869401
  Self energy of the core charge distribution:                -44.34715499673765
  Core Hamiltonian energy:                                     13.19307587829147
  Hartree energy:                                              19.84229875802889
  Exchange-correlation energy:                                 -3.89986068258888

  GAPW| Exc from hard and soft atomic rho1:                    -0.36826899186851
  GAPW| local Eh = 1 center integrals:                         -1.57506441881736

  Total energy:                                               -17.15497444499803

  outer SCF iter =    1 RMS gradient =   0.13E-04 energy =        -17.1549744450
  outer SCF loop converged in   1 iterations or    8 steps

  
  Eigenvalues of the occupied subspace spin            1
 ---------------------------------------------
      -0.87983804     -0.44042931     -0.25233040     -0.19486800
 Fermi Energy [eV] :   -5.302628
  
  Lowest Eigenvalues of the unoccupied subspace spin            1
 -----------------------------------------------------
 OT| Eigensolver reached convergence in 9 iterations
       0.33173316
  
 HOMO - LUMO gap [eV] :   14.329546

 ENERGY| Total FORCE_EVAL ( QS ) energy [a.u.]:              -17.154974445310387

 --------  Informations at step =     7 ------------
  Optimization Method        =                 BFGS
  Total Energy               =       -17.1549744453
  Real energy change         =        -0.0021503558
  Predicted change in energy =        -0.0028459441
  Scaling factor             =         0.9845842014
  Step size                  =         0.0497748228
  Trust radius               =         0.4724315332
  Decrease in energy         =                  YES
  Used time                  =               71.978

  Convergence check :
  Max. step size             =         0.0497748228
  Conv. limit for step size  =         0.0100000000
  Convergence in step size   =                   NO
  RMS step size              =         0.0291697429
  Conv. limit for RMS step   =         0.0030000000
  Convergence in RMS step    =                   NO
  Max. gradient              =         0.0076546031
  Conv. limit for gradients  =         0.0010000000
  Conv. for gradients        =                   NO
  RMS gradient               =         0.0042275378
  Conv. limit for RMS grad.  =         0.0003000000
  Conv. for gradients        =                   NO
 ---------------------------------------------------
 Estimated peak process memory after this step [MiB]                        1792

 --------------------------
 OPTIMIZATION STEP:      8
 --------------------------

 Number of electrons:                                                          8
 Number of occupied orbitals:                                                  4
 Number of molecular orbitals:                                                 4

 Number of orbital functions:                                                  6
 Number of independent orbital functions:                                      6

 Extrapolation method: ASPC


 SCF WAVEFUNCTION OPTIMIZATION

  ----------------------------------- OT ---------------------------------------
  Minimizer      : DIIS                : direct inversion
                                         in the iterative subspace
                                         using   7 DIIS vectors
                                         safer DIIS on
  Preconditioner : FULL_SINGLE_INVERSE : inversion of 
                                         H + eS - 2*(Sc)(c^T*H*c+const)(Sc)^T
  Precond_solver : DEFAULT
  stepsize       :    0.08000000                  energy_gap     :    0.08000000
  eps_taylor     :   0.10000E-15                  max_taylor     :             4
  ----------------------------------- OT ---------------------------------------

  Step     Update method      Time    Convergence         Total energy    Change
  ------------------------------------------------------------------------------
     1 OT DIIS     0.80E-01    7.0     0.03115779       -17.1520479849 -1.72E+01
     2 OT DIIS     0.80E-01    7.6     0.02109135       -17.1536035100 -1.56E-03
     3 OT DIIS     0.80E-01    7.4     0.00555495       -17.1549741167 -1.37E-03
     4 OT DIIS     0.80E-01    7.7     0.00153385       -17.1550689313 -9.48E-05
     5 OT DIIS     0.80E-01    7.7     0.00031726       -17.1550753057 -6.37E-06
     6 OT DIIS     0.80E-01    7.6     0.00035530       -17.1550753675 -6.18E-08
     7 OT SD       0.80E-01    7.6     0.00021505       -17.1550755116 -1.44E-07
     8 OT DIIS     0.80E-01    7.5     0.00009850       -17.1550755759 -6.43E-08

  *** SCF run converged in     8 steps ***


  Electronic density on regular grids:         -7.6331784435        0.3668215565
  Core density on regular grids:                8.0000000000       -0.0000000000
  Hard and soft densities (Lebedev):          -24.9774915886      -24.6106701999
  Total Rho_soft + Rho1_hard - Rho1_soft       -7.9999998322
  Total charge density (r-space):               0.0000001678
  Total Rho_soft + Rho0_soft (g-space):        -0.0000014401

  Overlap energy of the core charge distribution:               0.00000001129922
  Self energy of the core charge distribution:                -44.34715499673765
  Core Hamiltonian energy:                                     13.20001325229759
  Hartree energy:                                              19.83649596386515
  Exchange-correlation energy:                                 -3.90230629007392

  GAPW| Exc from hard and soft atomic rho1:                    -0.36907066269373
  GAPW| local Eh = 1 center integrals:                         -1.57305285388910

  Total energy:                                               -17.15507557593245

  outer SCF iter =    1 RMS gradient =   0.99E-04 energy =        -17.1550755759
  outer SCF loop converged in   1 iterations or    8 steps

  
  Eigenvalues of the occupied subspace spin            1
 ---------------------------------------------
      -0.88450429     -0.44329172     -0.25424176     -0.19675274
 Fermi Energy [eV] :   -5.353914
  
  Lowest Eigenvalues of the unoccupied subspace spin            1
 -----------------------------------------------------
 OT| Eigensolver reached convergence in 9 iterations
       0.34080245
  
 HOMO - LUMO gap [eV] :   14.627620

 ENERGY| Total FORCE_EVAL ( QS ) energy [a.u.]:              -17.155075595379436

 --------  Informations at step =     8 ------------
  Optimization Method        =                 BFGS
  Total Energy               =       -17.1550755954
  Real energy change         =        -0.0001011501
  Predicted change in energy =        -0.0001016768
  Scaling factor             =         0.9845842014
  Step size                  =         0.0154376904
  Trust radius               =         0.4724315332
  Decrease in energy         =                  YES
  Used time                  =               71.225

  Convergence check :
  Max. step size             =         0.0154376904
  Conv. limit for step size  =         0.0100000000
  Convergence in step size   =                   NO
  RMS step size              =         0.0070999484
  Conv. limit for RMS step   =         0.0030000000
  Convergence in RMS step    =                   NO
  Max. gradient              =         0.0029338251
  Conv. limit for gradients  =         0.0010000000
  Conv. for gradients        =                   NO
  RMS gradient               =         0.0013096665
  Conv. limit for RMS grad.  =         0.0003000000
  Conv. for gradients        =                   NO
 ---------------------------------------------------
 Estimated peak process memory after this step [MiB]                        1792

 --------------------------
 OPTIMIZATION STEP:      9
 --------------------------

 Number of electrons:                                                          8
 Number of occupied orbitals:                                                  4
 Number of molecular orbitals:                                                 4

 Number of orbital functions:                                                  6
 Number of independent orbital functions:                                      6

 Extrapolation method: ASPC


 SCF WAVEFUNCTION OPTIMIZATION

  ----------------------------------- OT ---------------------------------------
  Minimizer      : DIIS                : direct inversion
                                         in the iterative subspace
                                         using   7 DIIS vectors
                                         safer DIIS on
  Preconditioner : FULL_SINGLE_INVERSE : inversion of 
                                         H + eS - 2*(Sc)(c^T*H*c+const)(Sc)^T
  Precond_solver : DEFAULT
  stepsize       :    0.08000000                  energy_gap     :    0.08000000
  eps_taylor     :   0.10000E-15                  max_taylor     :             4
  ----------------------------------- OT ---------------------------------------

  Step     Update method      Time    Convergence         Total energy    Change
  ------------------------------------------------------------------------------
     1 OT DIIS     0.80E-01    6.8     0.01790606       -17.1542233849 -1.72E+01
     2 OT DIIS     0.80E-01    7.6     0.01100781       -17.1547149412 -4.92E-04
     3 OT DIIS     0.80E-01    7.7     0.00378618       -17.1550316942 -3.17E-04
     4 OT DIIS     0.80E-01    7.7     0.00126964       -17.1550755931 -4.39E-05
     5 OT DIIS     0.80E-01    7.6     0.00015948       -17.1550807146 -5.12E-06
     6 OT DIIS     0.80E-01    7.6     0.00009716       -17.1550807521 -3.75E-08

  *** SCF run converged in     6 steps ***


  Electronic density on regular grids:         -7.6329717065        0.3670282935
  Core density on regular grids:                8.0000000000       -0.0000000000
  Hard and soft densities (Lebedev):          -24.9758113974      -24.6087832717
  Total Rho_soft + Rho1_hard - Rho1_soft       -7.9999998322
  Total charge density (r-space):               0.0000001678
  Total Rho_soft + Rho0_soft (g-space):        -0.0000014158

  Overlap energy of the core charge distribution:               0.00000001130440
  Self energy of the core charge distribution:                -44.34715499673765
  Core Hamiltonian energy:                                     13.20047269850517
  Hartree energy:                                              19.83557630452472
  Exchange-correlation energy:                                 -3.90216417180609

  GAPW| Exc from hard and soft atomic rho1:                    -0.36928183120965
  GAPW| local Eh = 1 center integrals:                         -1.57252876663846

  Total energy:                                               -17.15508075205756

  outer SCF iter =    1 RMS gradient =   0.97E-04 energy =        -17.1550807521
  outer SCF loop converged in   1 iterations or    6 steps

  
  Eigenvalues of the occupied subspace spin            1
 ---------------------------------------------
      -0.88442225     -0.44344578     -0.25403306     -0.19670451
 Fermi Energy [eV] :   -5.352602
  
  Lowest Eigenvalues of the unoccupied subspace spin            1
 -----------------------------------------------------
 OT| Eigensolver reached convergence in 9 iterations
       0.34071485
  
 HOMO - LUMO gap [eV] :   14.623924

 ENERGY| Total FORCE_EVAL ( QS ) energy [a.u.]:              -17.155080776120172

 --------  Informations at step =     9 ------------
  Optimization Method        =                 BFGS
  Total Energy               =       -17.1550807761
  Real energy change         =        -0.0000051807
  Predicted change in energy =        -0.0000083427
  Scaling factor             =         0.9845842014
  Step size                  =         0.0055067394
  Trust radius               =         0.4724315332
  Decrease in energy         =                  YES
  Used time                  =               56.063

  Convergence check :
  Max. step size             =         0.0055067394
  Conv. limit for step size  =         0.0100000000
  Convergence in step size   =                  YES
  RMS step size              =         0.0025008846
  Conv. limit for RMS step   =         0.0030000000
  Convergence in RMS step    =                  YES
  Max. gradient              =         0.0011099551
  Conv. limit for gradients  =         0.0010000000
  Conv. for gradients        =                   NO
  RMS gradient               =         0.0005014433
  Conv. limit for RMS grad.  =         0.0003000000
  Conv. for gradients        =                   NO
 ---------------------------------------------------
 Estimated peak process memory after this step [MiB]                        1792

 --------------------------
 OPTIMIZATION STEP:     10
 --------------------------

 Number of electrons:                                                          8
 Number of occupied orbitals:                                                  4
 Number of molecular orbitals:                                                 4

 Number of orbital functions:                                                  6
 Number of independent orbital functions:                                      6

 Extrapolation method: ASPC


 SCF WAVEFUNCTION OPTIMIZATION

  ----------------------------------- OT ---------------------------------------
  Minimizer      : DIIS                : direct inversion
                                         in the iterative subspace
                                         using   7 DIIS vectors
                                         safer DIIS on
  Preconditioner : FULL_SINGLE_INVERSE : inversion of 
                                         H + eS - 2*(Sc)(c^T*H*c+const)(Sc)^T
  Precond_solver : DEFAULT
  stepsize       :    0.08000000                  energy_gap     :    0.08000000
  eps_taylor     :   0.10000E-15                  max_taylor     :             4
  ----------------------------------- OT ---------------------------------------

  Step     Update method      Time    Convergence         Total energy    Change
  ------------------------------------------------------------------------------
     1 OT DIIS     0.80E-01    7.0     0.00671802       -17.1549554082 -1.72E+01
     2 OT DIIS     0.80E-01    7.5     0.00419803       -17.1550249179 -6.95E-05
     3 OT DIIS     0.80E-01    7.5     0.00159406       -17.1550725493 -4.76E-05
     4 OT DIIS     0.80E-01    7.7     0.00047265       -17.1550809752 -8.43E-06
     5 OT DIIS     0.80E-01    7.6     0.00002342       -17.1550816531 -6.78E-07

  *** SCF run converged in     5 steps ***


  Electronic density on regular grids:         -7.6330985851        0.3669014149
  Core density on regular grids:                8.0000000000       -0.0000000000
  Hard and soft densities (Lebedev):          -24.9776554276      -24.6107541805
  Total Rho_soft + Rho1_hard - Rho1_soft       -7.9999998322
  Total charge density (r-space):               0.0000001678
  Total Rho_soft + Rho0_soft (g-space):        -0.0000014214

  Overlap energy of the core charge distribution:               0.00000001127777
  Self energy of the core charge distribution:                -44.34715499673765
  Core Hamiltonian energy:                                     13.20010867398308
  Hartree energy:                                              19.83620849800639
  Exchange-correlation energy:                                 -3.90222965433091

  GAPW| Exc from hard and soft atomic rho1:                    -0.36915237222914
  GAPW| local Eh = 1 center integrals:                         -1.57286181303059

  Total energy:                                               -17.15508165306105

  outer SCF iter =    1 RMS gradient =   0.23E-04 energy =        -17.1550816531
  outer SCF loop converged in   1 iterations or    5 steps

  
  Eigenvalues of the occupied subspace spin            1
 ---------------------------------------------
      -0.88444257     -0.44339626     -0.25412461     -0.19674134
 Fermi Energy [eV] :   -5.353604
  
  Lowest Eigenvalues of the unoccupied subspace spin            1
 -----------------------------------------------------
 OT| Eigensolver reached convergence in 9 iterations
       0.34071750
  
 HOMO - LUMO gap [eV] :   14.624999

 ENERGY| Total FORCE_EVAL ( QS ) energy [a.u.]:              -17.155081653997080

 --------  Informations at step =    10 ------------
  Optimization Method        =                 BFGS
  Total Energy               =       -17.1550816540
  Real energy change         =        -0.0000008779
  Predicted change in energy =        -0.0000009144
  Scaling factor             =         0.9845842014
  Step size                  =         0.0016120672
  Trust radius               =         0.4724315332
  Decrease in energy         =                  YES
  Used time                  =               48.552

  Convergence check :
  Max. step size             =         0.0016120672
  Conv. limit for step size  =         0.0100000000
  Convergence in step size   =                  YES
  RMS step size              =         0.0007261180
  Conv. limit for RMS step   =         0.0030000000
  Convergence in RMS step    =                  YES
  Max. gradient              =         0.0000212987
  Conv. limit for gradients  =         0.0010000000
  Conv. in gradients         =                  YES
  RMS gradient               =         0.0000121390
  Conv. limit for RMS grad.  =         0.0003000000
  Conv. in RMS gradients     =                  YES
 ---------------------------------------------------
 Estimated peak process memory after this step [MiB]                        1792

 *******************************************************************************
 ***                    GEOMETRY OPTIMIZATION COMPLETED                      ***
 *******************************************************************************

                    Reevaluating energy at the minimum

 Number of electrons:                                                          8
 Number of occupied orbitals:                                                  4
 Number of molecular orbitals:                                                 4

 Number of orbital functions:                                                  6
 Number of independent orbital functions:                                      6

 Extrapolation method: ASPC


 SCF WAVEFUNCTION OPTIMIZATION

  ----------------------------------- OT ---------------------------------------
  Minimizer      : DIIS                : direct inversion
                                         in the iterative subspace
                                         using   7 DIIS vectors
                                         safer DIIS on
  Preconditioner : FULL_SINGLE_INVERSE : inversion of 
                                         H + eS - 2*(Sc)(c^T*H*c+const)(Sc)^T
  Precond_solver : DEFAULT
  stepsize       :    0.08000000                  energy_gap     :    0.08000000
  eps_taylor     :   0.10000E-15                  max_taylor     :             4
  ----------------------------------- OT ---------------------------------------

  Step     Update method      Time    Convergence         Total energy    Change
  ------------------------------------------------------------------------------
     1 OT DIIS     0.80E-01    6.8     0.00127179       -17.1550770467 -1.72E+01
     2 OT DIIS     0.80E-01    7.6     0.00081275       -17.1550795648 -2.52E-06
     3 OT DIIS     0.80E-01    7.7     0.00027742       -17.1550814001 -1.84E-06
     4 OT DIIS     0.80E-01    7.6     0.00007111       -17.1550816398 -2.40E-07

  *** SCF run converged in     4 steps ***


  Electronic density on regular grids:         -7.6330908720        0.3669091280
  Core density on regular grids:                8.0000000000       -0.0000000000
  Hard and soft densities (Lebedev):          -24.9778180157      -24.6109090556
  Total Rho_soft + Rho1_hard - Rho1_soft       -7.9999998322
  Total charge density (r-space):               0.0000001678
  Total Rho_soft + Rho0_soft (g-space):        -0.0000014215

  Overlap energy of the core charge distribution:               0.00000001127777
  Self energy of the core charge distribution:                -44.34715499673765
  Core Hamiltonian energy:                                     13.20011219840469
  Hartree energy:                                              19.83619154584019
  Exchange-correlation energy:                                 -3.90222050846312

  GAPW| Exc from hard and soft atomic rho1:                    -0.36916106290965
  GAPW| local Eh = 1 center integrals:                         -1.57284882723290

  Total energy:                                               -17.15508163982066

  outer SCF iter =    1 RMS gradient =   0.71E-04 energy =        -17.1550816398
  outer SCF loop converged in   1 iterations or    4 steps

  
  Eigenvalues of the occupied subspace spin            1
 ---------------------------------------------
      -0.88443863     -0.44339773     -0.25412950     -0.19674354
 Fermi Energy [eV] :   -5.353664
  
  Lowest Eigenvalues of the unoccupied subspace spin            1
 -----------------------------------------------------
 OT| Eigensolver reached convergence in 9 iterations
       0.34072307
  
 HOMO - LUMO gap [eV] :   14.625210

 ENERGY| Total FORCE_EVAL ( QS ) energy [a.u.]:              -17.155081639820665

 -------------------------------------------------------------------------------
 -                                                                             -
 -                                DBCSR STATISTICS                             -
 -                                                                             -
 -------------------------------------------------------------------------------
 COUNTER                                    TOTAL       BLAS       SMM       ACC
 flops     4 x     1 x     6                  576     100.0%      0.0%      0.0%
 flops     6 x     1 x     4                  576     100.0%      0.0%      0.0%
 flops     1 x     1 x     6                 2400     100.0%      0.0%      0.0%
 flops     5 x     1 x     5                 2950     100.0%      0.0%      0.0%
 flops     1 x     1 x     1                 2956     100.0%      0.0%      0.0%
 flops     5 x     1 x     6                 3540     100.0%      0.0%      0.0%
 flops     6 x     1 x     5                 3540     100.0%      0.0%      0.0%
 flops     5 x     5 x     6                 3600     100.0%      0.0%      0.0%
 flops     4 x     1 x     1                 3776     100.0%      0.0%      0.0%
 flops     6 x     1 x     1                 3960     100.0%      0.0%      0.0%
 flops     6 x     1 x     6                 4248     100.0%      0.0%      0.0%
 flops     6 x     5 x     6                 4320     100.0%      0.0%      0.0%
 flops     1 x     1 x     4                 7064     100.0%      0.0%      0.0%
 flops     1 x     4 x     1                10336     100.0%      0.0%      0.0%
 flops     4 x     1 x     4                12320     100.0%      0.0%      0.0%
 flops     4 x     4 x     1                20672     100.0%      0.0%      0.0%
 flops     1 x     4 x     4                25824     100.0%      0.0%      0.0%
 flops     6 x     4 x     6                32832     100.0%      0.0%      0.0%
 flops     4 x     4 x     6                80640     100.0%      0.0%      0.0%
 flops     6 x     4 x     4                95616     100.0%      0.0%      0.0%
 flops     4 x     4 x     4               167168     100.0%      0.0%      0.0%
 flops inhomo. stacks                           0       0.0%      0.0%      0.0%
 flops total                       488.914000E+03     100.0%      0.0%      0.0%
 flops max/rank                    488.914000E+03     100.0%      0.0%      0.0%
 matmuls inhomo. stacks                         0       0.0%      0.0%      0.0%
 matmuls total                               9115     100.0%      0.0%      0.0%
 number of processed stacks                  6034     100.0%      0.0%      0.0%
 average stack size                                     1.5       0.0       0.0
 marketing flops                   501.370000E+03
 -------------------------------------------------------------------------------
 # multiplications                           3970
 max memory usage/rank               1.821958E+09
 # max total images/rank                        1
 # max 3D layers                                1
 # MPI messages exchanged                       0
 -------------------------------------------------------------------------------

 -------------------------------------------------------------------------------
 -                                                                             -
 -                                DBM STATISTICS                               -
 -                                                                             -
 -------------------------------------------------------------------------------
    M  x    N  x    K                                          COUNT     PERCENT
 -------------------------------------------------------------------------------

 -------------------------------------------------------------------------------
 -                                                                             -
 -                                GRID STATISTICS                              -
 -                                                                             -
 -------------------------------------------------------------------------------
 LP    KERNEL             BACKEND                              COUNT     PERCENT
 0     collocate ortho    REF                                  12503      27.97%
 0     integrate ortho    REF                                  10881      24.34%
 1     integrate ortho    REF                                   7298      16.33%
 1     collocate ortho    REF                                   7008      15.68%
 2     integrate ortho    REF                                   3210       7.18%
 2     collocate ortho    REF                                   2850       6.38%
 3     integrate ortho    REF                                    275       0.62%
 0     collocate general  REF                                    226       0.51%
 0     integrate general  REF                                    204       0.46%
 2     collocate general  REF                                    113       0.25%
 2     integrate general  REF                                    102       0.23%
 1     integrate general  REF                                     22       0.05%
 3     integrate general  REF                                     11       0.02%
 -------------------------------------------------------------------------------

 MEMORY| Estimated peak process memory [MiB]                                1792

 -------------------------------------------------------------------------------
 ----                             MULTIGRID INFO                            ----
 -------------------------------------------------------------------------------
 count for grid        1:           1610          cutoff [a.u.]          200.00
 count for grid        2:           1151          cutoff [a.u.]           66.67
 count for grid        3:           1016          cutoff [a.u.]           22.22
 count for grid        4:            884          cutoff [a.u.]            7.41
 total gridlevel count  :           4661

 -------------------------------------------------------------------------------
 -                                                                             -
 -                           R E F E R E N C E S                               -
 -                                                                             -
 -------------------------------------------------------------------------------
 
 CP2K version 2023.1 (Development Version), the CP2K developers group (2023).
 CP2K is freely available from https://www.cp2k.org/ .

 Kuehne,Thomas D.; Iannuzzi,Marcella; Del Ben,Mauro;
 Rybkin,Vladimir V.; Seewald,Patrick; Stein,Frederick; Laino,Teodoro;
 Khaliullin,Rustam Z.; Schuett,Ole; Schiffmann,Florian; Golze,Dorothea;
 Wilhelm,Jan; Chulkov,Sergey; Bani-Hashemian,Mohammad Hossein;
 Weber,Valery; Borstnik,Urban; Taillefumier,Mathieu;
 Jakobovits,Alice Shoshana; Lazzaro,Alfio; Pabst,Hans; Mueller,Tiziano;
 Schade,Robert; Guidon,Manuel; Andermatt,Samuel; Holmberg,Nico;
 Schenter,Gregory K.; Hehn,Anna; Bussy,Augustin; Belleflamme,Fabian;
 Tabacchi,Gloria; Gloess,Andreas; Lass,Michael; Bethune,Iain;
 Mundy,Christopher J.; Plessl,Christian; Watkins,Matt;
 VandeVondele,Joost; Krack,Matthias; Hutter,Juerg. 
 The Journal of Chemical Physics, 152 (19), (2020). 
 CP2K: An electronic structure and molecular dynamics software package -
 Quickstep: Efficient and accurate electronic structure calculations.
 https://doi.org/10.1063/5.0007045

 Schuett, Ole; Messmer, Peter; Hutter, Juerg; VandeVondele, Joost. 
 Electronic Structure Calculations on Graphics Processing Units, John
 Wiley & Sons, Ltd, 173-190 (2016). 
 GPU-Accelerated Sparse Matrix-Matrix Multiplication for
 Linear Scaling Density Functional Theory.
 https://doi.org/10.1002/9781118670712.ch8

 Borstnik, U; VandeVondele, J; Weber, V; Hutter, J. 
 PARALLEL COMPUTING, 40 (5-6), 47-58 (2014). 
 Sparse matrix multiplication: The distributed block-compressed sparse
 row library.
 https://doi.org/10.1016/j.parco.2014.03.012

 Hutter, J; Iannuzzi, M; Schiffmann, F; VandeVondele, J. 
 WIREs Comput Mol Sci., 4 (1), 15-25 (2014). 
 CP2K: atomistic simulations of condensed matter systems.
 https://doi.org/10.1002/wcms.1159

 VandeVondele, J; Hutter, J. 
 JOURNAL OF CHEMICAL PHYSICS, 127 (11), 114105 (2007). 
 Gaussian basis sets for accurate calculations on molecular systems in
 gas and condensed phases.
 https://doi.org/10.1063/1.2770708

 Genovese, L; Deutsch, T; Goedecker, S. 
 JOURNAL OF CHEMICAL PHYSICS, 127 (5), 054704 (2007). 
 Efficient and accurate three-dimensional Poisson solver for surface
 problems.
 https://doi.org/10.1063/1.2754685

 Kuhne, TD; Krack, M; Mohamed, FR; Parrinello, M. 
 PHYSICAL REVIEW LETTERS, 98 (6), 066401 (2007). 
 Efficient and accurate Car-Parrinello-like approach to
 Born-Oppenheimer molecular dynamics.
 https://doi.org/10.1103/PhysRevLett.98.066401

 Genovese, L; Deutsch, T; Neelov, A; Goedecker, S; Beylkin, G. 
 JOURNAL OF CHEMICAL PHYSICS, 125 (7), 074105 (2006). 
 Efficient solution of Poisson's equation with free boundary conditions.
 https://doi.org/10.1063/1.2335442

 Krack, M. 
 THEORETICAL CHEMISTRY ACCOUNTS, 114 (1-3), 145-152 (2005). 
 Pseudopotentials for H to Kr optimized for gradient-corrected
 exchange-correlation functionals.
 https://doi.org/10.1007/s00214-005-0655-y

 Frigo, M; Johnson, SG. 
 PROCEEDINGS OF THE IEEE, 93 (2), 216-231 (2005). 
 The design and implementation of FFTW3.
 https://doi.org/10.1109/JPROC.2004.840301

 Kolafa, J. 
 JOURNAL OF COMPUTATIONAL CHEMISTRY, 25 (3), 335-342 (2004). 
 Time-reversible always stable predictor-corrector method for
 molecular dynamics of polarizable molecules.
 https://doi.org/10.1002/jcc.10385

 VandeVondele, J; Hutter, J. 
 JOURNAL OF CHEMICAL PHYSICS, 118 (10), 4365-4369 (2003). 
 An efficient orbital transformation method for electronic structure
 calculations.
 https://doi.org/10.1063/1.1543154

 Lippert, G; Hutter, J; Parrinello, M. 
 THEORETICAL CHEMISTRY ACCOUNTS, 103 (2), 124-140 (1999). 
 The Gaussian and augmented-plane-wave density functional method for ab
 initio molecular dynamics simulations.
 https://doi.org/10.1007/s002140050523

 Krack, M; Parrinello, M. 
 PHYSICAL CHEMISTRY CHEMICAL PHYSICS, 2 (10), 2105-2112 (2000). 
 All-electron ab-initio molecular dynamics.
 https://doi.org/10.1039/b001167n

 Hartwigsen, C; Goedecker, S; Hutter, J. 
 PHYSICAL REVIEW B, 58 (7), 3641-3662 (1998). 
 Relativistic separable dual-space Gaussian pseudopotentials from H to Rn.
 https://doi.org/10.1103/PhysRevB.58.3641

 Perdew, JP; Burke, K; Ernzerhof, M. 
 PHYSICAL REVIEW LETTERS, 77 (18), 3865-3868 (1996). 
 Generalized gradient approximation made simple.
 https://doi.org/10.1103/PhysRevLett.77.3865

 Goedecker, S; Teter, M; Hutter, J. 
 PHYSICAL REVIEW B, 54 (3), 1703-1710 (1996). 
 Separable dual-space Gaussian pseudopotentials.
 https://doi.org/10.1103/PhysRevB.54.1703


 -------------------------------------------------------------------------------
 -                                                                             -
 -                                T I M I N G                                  -
 -                                                                             -
 -------------------------------------------------------------------------------
 SUBROUTINE                       CALLS  ASD         SELF TIME        TOTAL TIME
                                MAXIMUM       AVERAGE  MAXIMUM  AVERAGE  MAXIMUM
 CP2K                                 1  1.0    0.098    0.098  908.240  908.240
 cp_geo_opt                           1  2.0    0.002    0.002  906.020  906.020
 geoopt_bfgs                          1  3.0    0.005    0.005  906.018  906.018
 cp_eval_at                          12  4.0    0.001    0.001  905.953  905.953
 qs_forces                           11  5.0    0.007    0.007  871.757  871.757
 qs_energies                         12  5.9    0.003    0.003  830.282  830.282
 scf_env_do_scf                      12  6.9    0.002    0.002  785.761  785.761
 rebuild_ks_matrix                  113  9.7    0.000    0.000  783.719  783.719
 qs_ks_build_kohn_sham_matrix       113 10.7    0.028    0.028  783.719  783.719
 qs_ks_update_qs_env                114  9.0    0.001    0.001  708.073  708.073
 scf_env_do_scf_inner_loop          102  8.0    0.007    0.007  699.653  699.653
 pw_transfer                       2498 13.7    0.172    0.172  517.564  517.564
 fft_wrap_pw1pw2                   2385 14.7    0.021    0.021  516.512  516.512
 fft_wrap_pw1pw2_200               1632 16.0   42.455   42.455  502.751  502.751
 qs_vxc_create                      113 11.7    0.003    0.003  365.286  365.286
 xc_vxc_pw_create                   113 12.7    5.485    5.485  365.283  365.283
 pw_poisson_solve                   113 11.7   96.009   96.009  283.433  283.433
 fft3d_s                           2386 16.7  276.488  276.488  276.512  276.512
 xc_pw_derive                       678 14.7    0.008    0.008  231.554  231.554
 xc_rho_set_and_dset_create         113 13.7    4.633    4.633  197.978  197.978
 xc_pw_divergence                   113 13.7    0.005    0.005  159.533  159.533
 pw_gather_s                       1230 16.3  103.784  103.784  103.784  103.784
 ps_wavelet_solve                   113 12.7   93.347   93.347   95.849   95.849
 pw_scatter_s                      1155 17.1   93.186   93.186   93.186   93.186
 init_scf_loop                       12  7.9    0.000    0.000   86.104   86.104
 qs_rho_update_rho_low              114  9.1    0.002    0.002   85.848   85.848
 calculate_rho_elec                 114 10.1    2.912    2.912   85.836   85.836
 xc_functional_eval                 791 13.8    0.003    0.003   80.910   80.910
 pbe_lda_eval                       791 14.8   80.906   80.906   80.906   80.906
 density_rs2pw                      114 11.1    0.006    0.006   80.876   80.876
 qs_ks_update_qs_env_forces          11  6.0    0.000    0.000   75.648   75.648
 sum_up_and_integrate               113 11.7    3.268    3.268   49.498   49.498
 integrate_v_rspace                 113 12.7    0.004    0.004   46.230   46.230
 potential_pw2rs                    113 13.7    0.098    0.098   45.854   45.854
 prepare_gapw_den                   113 11.7    0.001    0.001   44.262   44.262
 put_rho0_on_grid                   113 12.7    2.905    2.905   44.168   44.168
 scf_post_calculation_gpw            12  6.9    0.003    0.003   35.190   35.190
 pw_derive                          678 15.7   18.565   18.565   18.565   18.565
 -------------------------------------------------------------------------------

 The number of warnings for this run is : 1
 
 -------------------------------------------------------------------------------
  **** **** ******  **  PROGRAM ENDED AT                 2023-04-05 09:05:00.562
 ***** ** ***  *** **   PROGRAM RAN ON                               eu-g5-002-3
 **    ****   ******    PROGRAM RAN BY                                 jbachmann
 ***** **    ** ** **   PROGRAM PROCESS ID                                124920
  **** **  *******  **  PROGRAM STOPPED IN /cluster/home/jbachmann/Molecular-and
                                           -Materials-Modelling-FS2023/exercise7
                                           /PBE/SZV
