 DBCSR| CPU Multiplication driver                                           BLAS (U)
 DBCSR| Multrec recursion limit                                              512 (U)
 DBCSR| Multiplication stack size                                           1000 (D)
 DBCSR| Maximum elements for images                                    UNLIMITED (U)
 DBCSR| Multiplicative factor virtual images                                   1 (U)
 DBCSR| Use multiplication densification                                       T (D)
 DBCSR| Multiplication size stacks                                             3 (U)
 DBCSR| Use memory pool for CPU allocation                                     F (U)
 DBCSR| OMP: Current number of threads                                         1
 DBCSR| OMP: Max number of threads                                             1
 DBCSR| Split modifier for TAS multiplication algorithm                  1.0E+00 (U)


  **** **** ******  **  PROGRAM STARTED AT               2023-04-05 08:59:02.924
 ***** ** ***  *** **   PROGRAM STARTED ON                           eu-g5-002-3
 **    ****   ******    PROGRAM STARTED BY                             jbachmann
 ***** **    ** ** **   PROGRAM PROCESS ID                                126367
  **** **  *******  **  PROGRAM STARTED IN /cluster/home/jbachmann/Molecular-and
                                           -Materials-Modelling-FS2023/exercise7
                                           /PBE/SZV

 CP2K| version string:                 CP2K version 2023.1 (Development Version)
 CP2K| source code revision number:                                  git:dc34ec9
 CP2K| cp2kflags: omp libint fftw3 libxc max_contr=4 spglib libvori libbqb      
 CP2K| is freely available from                            https://www.cp2k.org/
 CP2K| Program compiled at                         Mon Mar 27 23:22:21 CEST 2023
 CP2K| Program compiled on                                           eu-g5-025-4
 CP2K| Program compiled for                              Linux-gnu-x86_64-static
 CP2K| Data directory path      /cluster/apps/nss/gcc-6.3.0/cp2k/8.2/x86_64/data
 CP2K| Input file name                                                    ts.inp

 GLOBAL| Force Environment number                                              1
 GLOBAL| Basis set file name                                        BASIS_MOLOPT
 GLOBAL| Potential file name                                      GTH_POTENTIALS
 GLOBAL| MM Potential file name                                     MM_POTENTIAL
 GLOBAL| Coordinate file name                                             ts.xyz
 GLOBAL| Method name                                                        CP2K
 GLOBAL| Project name                                                         ts
 GLOBAL| Run type                                                         ENERGY
 GLOBAL| FFT library                                                       FFTW3
 GLOBAL| Diagonalization library                                       ScaLAPACK
 GLOBAL| DGEMM library                                                      BLAS
 GLOBAL| Orthonormality check for eigenvectors                          DISABLED
 GLOBAL| Matrix multiplication library                                 ScaLAPACK
 GLOBAL| All-to-all communication in single precision                          F
 GLOBAL| FFTs using library dependent lengths                                  F
 GLOBAL| Grid backend                                                       AUTO
 GLOBAL| Global print level                                                  LOW
 GLOBAL| MPI I/O enabled                                                       T
 GLOBAL| Total number of message passing processes                             1
 GLOBAL| Number of threads for this process                                    1
 GLOBAL| This output is from process                                           0
 GLOBAL| Stack size for threads created by OpenMP (OMP_STACKSIZE)        default
 GLOBAL| CPU model name                          AMD EPYC 7742 64-Core Processor

 MEMORY| system memory details [Kb]
 MEMORY|                        rank 0           min           max       average
 MEMORY| MemTotal            525874016     525874016     525874016     525874016
 MEMORY| MemFree             436484832     436484832     436484832     436484832
 MEMORY| Buffers                     0             0             0             0
 MEMORY| Cached               15624272      15624272      15624272      15624272
 MEMORY| Slab                  2177692       2177692       2177692       2177692
 MEMORY| SReclaimable           915676        915676        915676        915676
 MEMORY| MemLikelyFree       453024780     453024780     453024780     453024780


 GENERATE|  Preliminary Number of Bonds generated:                             0
 GENERATE|  Achieved consistency in connectivity generation.

 *******************************************************************************
 *******************************************************************************
 **                                                                           **
 **     #####                         ##              ##                      **
 **    ##   ##            ##          ##              ##                      **
 **   ##     ##                       ##            ######                    **
 **   ##     ##  ##   ##  ##   #####  ##  ##   ####   ##    #####    #####    **
 **   ##     ##  ##   ##  ##  ##      ## ##   ##      ##   ##   ##  ##   ##   **
 **   ##  ## ##  ##   ##  ##  ##      ####     ###    ##   ######   ######    **
 **    ##  ###   ##   ##  ##  ##      ## ##      ##   ##   ##       ##        **
 **     #######   #####   ##   #####  ##  ##  ####    ##    #####   ##        **
 **           ##                                                    ##        **
 **                                                                           **
 **                                                ... make the atoms dance   **
 **                                                                           **
 **            Copyright (C) by CP2K developers group (2000-2023)             **
 **                      J. Chem. Phys. 152, 194103 (2020)                    **
 **                                                                           **
 *******************************************************************************


 TOTAL NUMBERS AND MAXIMUM NUMBERS

  Total number of            - Atomic kinds:                                   3
                             - Atoms:                                          9
                             - Shell sets:                                     9
                             - Shells:                                        12
                             - Primitive Cartesian functions:                 63
                             - Cartesian basis functions:                     18
                             - Spherical basis functions:                     18

  Maximum angular momentum of- Orbital basis functions:                        1
                             - Local part of the GTH pseudopotential:          2
                             - Non-local part of the GTH pseudopotential:      0


 SCF PARAMETERS         Density guess:                                   RESTART
                        --------------------------------------------------------
                        max_scf:                                              50
                        max_scf_history:                                       0
                        max_diis:                                              4
                        --------------------------------------------------------
                        eps_scf:                                        1.00E-04
                        eps_scf_history:                                0.00E+00
                        eps_diis:                                       1.00E-01
                        eps_eigval:                                     1.00E-05
                        --------------------------------------------------------
                        level_shift [a.u.]:                             0.000000
                        --------------------------------------------------------
                        Outer loop SCF in use 
                        No variables optimised in outer loop
                        eps_scf                                         1.00E-04
                        max_scf                                              500
                        No outer loop optimization
                        step_size                                       5.00E-01

 PW_GRID| Information for grid number                                          1
 PW_GRID| Cutoff [a.u.]                                                    200.0
 PW_GRID| spherical cutoff:                                                   NO
 PW_GRID|   Bounds   1            -96      95                Points:         192
 PW_GRID|   Bounds   2            -96      95                Points:         192
 PW_GRID|   Bounds   3            -96      95                Points:         192
 PW_GRID| Volume element (a.u.^3)  0.3218E-02     Volume (a.u.^3)     22775.6292
 PW_GRID| Grid span                                                    FULLSPACE

 PW_GRID| Information for grid number                                          2
 PW_GRID| Number of the reference grid                                         1
 PW_GRID| Cutoff [a.u.]                                                     66.7
 PW_GRID| spherical cutoff:                                                   NO
 PW_GRID|   Bounds   1            -54      53                Points:         108
 PW_GRID|   Bounds   2            -54      53                Points:         108
 PW_GRID|   Bounds   3            -54      53                Points:         108
 PW_GRID| Volume element (a.u.^3)  0.1808E-01     Volume (a.u.^3)     22775.6292
 PW_GRID| Grid span                                                    FULLSPACE

 PW_GRID| Information for grid number                                          3
 PW_GRID| Number of the reference grid                                         1
 PW_GRID| Cutoff [a.u.]                                                     22.2
 PW_GRID| spherical cutoff:                                                   NO
 PW_GRID|   Bounds   1            -32      31                Points:          64
 PW_GRID|   Bounds   2            -32      31                Points:          64
 PW_GRID|   Bounds   3            -32      31                Points:          64
 PW_GRID| Volume element (a.u.^3)  0.8688E-01     Volume (a.u.^3)     22775.6292
 PW_GRID| Grid span                                                    FULLSPACE

 PW_GRID| Information for grid number                                          4
 PW_GRID| Number of the reference grid                                         1
 PW_GRID| Cutoff [a.u.]                                                      7.4
 PW_GRID| spherical cutoff:                                                   NO
 PW_GRID|   Bounds   1            -18      17                Points:          36
 PW_GRID|   Bounds   2            -18      17                Points:          36
 PW_GRID|   Bounds   3            -18      17                Points:          36
 PW_GRID| Volume element (a.u.^3)  0.4882         Volume (a.u.^3)     22775.6292
 PW_GRID| Grid span                                                    FULLSPACE

 POISSON| Solver                                                         WAVELET
 POISSON| Wavelet| Scaling function                                           40
 POISSON| Periodicity                                                       NONE

 RS_GRID| Information for grid number                                          1
 RS_GRID|   Bounds   1            -96      95                Points:         192
 RS_GRID|   Bounds   2            -96      95                Points:         192
 RS_GRID|   Bounds   3            -96      95                Points:         192

 RS_GRID| Information for grid number                                          2
 RS_GRID|   Bounds   1            -54      53                Points:         108
 RS_GRID|   Bounds   2            -54      53                Points:         108
 RS_GRID|   Bounds   3            -54      53                Points:         108

 RS_GRID| Information for grid number                                          3
 RS_GRID|   Bounds   1            -32      31                Points:          64
 RS_GRID|   Bounds   2            -32      31                Points:          64
 RS_GRID|   Bounds   3            -32      31                Points:          64

 RS_GRID| Information for grid number                                          4
 RS_GRID|   Bounds   1            -18      17                Points:          36
 RS_GRID|   Bounds   2            -18      17                Points:          36
 RS_GRID|   Bounds   3            -18      17                Points:          36

 Number of electrons:                                                         20
 Number of occupied orbitals:                                                 10
 Number of molecular orbitals:                                                10

 Number of orbital functions:                                                 18
 Number of independent orbital functions:                                     18

 Extrapolation method: initial_guess

 *** WARNING in qs_initial_guess.F:305 :: User requested to restart the   ***
 *** wavefunction from the file named: ts-RESTART.wfn. This file does not ***
 *** exist. Please check the existence of the file or change properly the ***
 *** value of the keyword WFN_RESTART_FILE_NAME. Calculation continues    ***
 *** using ATOMIC GUESS.                                                  ***



 SCF WAVEFUNCTION OPTIMIZATION

  ----------------------------------- OT ---------------------------------------
  Minimizer      : DIIS                : direct inversion
                                         in the iterative subspace
                                         using   7 DIIS vectors
                                         safer DIIS on
  Preconditioner : FULL_SINGLE_INVERSE : inversion of 
                                         H + eS - 2*(Sc)(c^T*H*c+const)(Sc)^T
  Precond_solver : DEFAULT
  stepsize       :    0.08000000                  energy_gap     :    0.08000000
  eps_taylor     :   0.10000E-15                  max_taylor     :             4
  ----------------------------------- OT ---------------------------------------

  Step     Update method      Time    Convergence         Total energy    Change
  ------------------------------------------------------------------------------
     1 OT DIIS     0.80E-01   11.5     0.30204701       -28.4793634502 -2.85E+01
     2 OT DIIS     0.80E-01    9.8     0.31100749       -29.5161041803 -1.04E+00
     3 OT DIIS     0.80E-01    9.4     0.24032673       -30.1213013295 -6.05E-01
     4 OT DIIS     0.80E-01    9.6     0.13531677       -30.5125624029 -3.91E-01
     5 OT DIIS     0.80E-01    9.7     0.06237880       -30.6252548932 -1.13E-01
     6 OT DIIS     0.80E-01    9.7     0.03858175       -30.6959903513 -7.07E-02
     7 OT DIIS     0.80E-01    9.1     0.01970247       -30.7120786908 -1.61E-02
     8 OT DIIS     0.80E-01    9.3     0.01178643       -30.7189924290 -6.91E-03
     9 OT DIIS     0.80E-01    9.7     0.01063182       -30.7204622149 -1.47E-03
    10 OT DIIS     0.80E-01    9.4     0.00460658       -30.7215052245 -1.04E-03
    11 OT DIIS     0.80E-01    9.3     0.00184695       -30.7217489094 -2.44E-04
    12 OT DIIS     0.80E-01    9.6     0.00100894       -30.7218370949 -8.82E-05
    13 OT DIIS     0.80E-01    9.4     0.00061033       -30.7218676776 -3.06E-05
    14 OT DIIS     0.80E-01    9.5     0.00036124       -30.7218811233 -1.34E-05
    15 OT DIIS     0.80E-01    9.2     0.00021434       -30.7218858070 -4.68E-06
    16 OT DIIS     0.80E-01    9.3     0.00013002       -30.7218874401 -1.63E-06
    17 OT DIIS     0.80E-01    9.3     0.00008068       -30.7218879324 -4.92E-07

  *** SCF run converged in    17 steps ***


  Electronic density on regular grids:        -19.5350989917        0.4649010083
  Core density on regular grids:               20.0000000000       -0.0000000000
  Hard and soft densities (Lebedev):          -94.4108850326      -93.9459840793
  Total Rho_soft + Rho1_hard - Rho1_soft      -19.9999999450
  Total charge density (r-space):               0.0000000550
  Total Rho_soft + Rho0_soft (g-space):        -0.0000048535

  Overlap energy of the core charge distribution:               0.00000136846112
  Self energy of the core charge distribution:                -76.65906668574564
  Core Hamiltonian energy:                                     24.39378023266429
  Hartree energy:                                              44.52149319285745
  Exchange-correlation energy:                                 -8.88068034733099

  GAPW| Exc from hard and soft atomic rho1:                    -0.43808754622092
  GAPW| local Eh = 1 center integrals:                        -13.65932814703674

  Total energy:                                               -30.72188793235144

  outer SCF iter =    1 RMS gradient =   0.81E-04 energy =        -30.7218879324
  outer SCF loop converged in   1 iterations or   17 steps

  
  Eigenvalues of the occupied subspace spin            1
 ---------------------------------------------
      -0.83448689     -0.64451265     -0.48195490     -0.39926577
      -0.37272668     -0.30446222     -0.25963391     -0.22950945
      -0.22056646     -0.10419803
 Fermi Energy [eV] :   -2.835373
  
  Lowest Eigenvalues of the unoccupied subspace spin            1
 -----------------------------------------------------
 OT| Eigensolver reached convergence in 15 iterations
       0.04432901
  
 HOMO - LUMO gap [eV] :    4.041626

 ENERGY| Total FORCE_EVAL ( QS ) energy [a.u.]:              -30.721887932351436

 -------------------------------------------------------------------------------
 -                                                                             -
 -                                DBCSR STATISTICS                             -
 -                                                                             -
 -------------------------------------------------------------------------------
 COUNTER                                    TOTAL       BLAS       SMM       ACC
 flops    10 x     1 x    10                  200     100.0%      0.0%      0.0%
 flops    10 x     1 x    18                  360     100.0%      0.0%      0.0%
 flops    18 x     1 x    10                  360     100.0%      0.0%      0.0%
 flops     1 x     1 x    18                 1044     100.0%      0.0%      0.0%
 flops     1 x    10 x    10                 1200     100.0%      0.0%      0.0%
 flops    18 x     1 x     1                 1656     100.0%      0.0%      0.0%
 flops    11 x     1 x    11                 1936     100.0%      0.0%      0.0%
 flops     4 x    10 x    10                 2400     100.0%      0.0%      0.0%
 flops     1 x     1 x     1                 2450     100.0%      0.0%      0.0%
 flops    11 x     1 x    18                 3168     100.0%      0.0%      0.0%
 flops    18 x     1 x    11                 3168     100.0%      0.0%      0.0%
 flops    11 x    11 x    18                 4356     100.0%      0.0%      0.0%
 flops     4 x     1 x     1                 4608     100.0%      0.0%      0.0%
 flops     1 x     1 x     4                 4608     100.0%      0.0%      0.0%
 flops    18 x     1 x    18                 5184     100.0%      0.0%      0.0%
 flops    18 x    11 x    18                 7128     100.0%      0.0%      0.0%
 flops     1 x     1 x    10                 7980     100.0%      0.0%      0.0%
 flops     4 x     1 x     4                 9216     100.0%      0.0%      0.0%
 flops     4 x     1 x    10                13680     100.0%      0.0%      0.0%
 flops     1 x     4 x    10                13680     100.0%      0.0%      0.0%
 flops     1 x    10 x     1                30240     100.0%      0.0%      0.0%
 flops     4 x     4 x    10                36480     100.0%      0.0%      0.0%
 flops     4 x    10 x     1                60480     100.0%      0.0%      0.0%
 flops     1 x    10 x     4                60480     100.0%      0.0%      0.0%
 flops    18 x    10 x    18               116640     100.0%      0.0%      0.0%
 flops     4 x    10 x     4               120960     100.0%      0.0%      0.0%
 flops    10 x    10 x    18               248400     100.0%      0.0%      0.0%
 flops    10 x    10 x    10               294000     100.0%      0.0%      0.0%
 flops    18 x    10 x    10               302400     100.0%      0.0%      0.0%
 flops inhomo. stacks                           0       0.0%      0.0%      0.0%
 flops total                         1.358462E+06     100.0%      0.0%      0.0%
 flops max/rank                      1.358462E+06     100.0%      0.0%      0.0%
 matmuls inhomo. stacks                         0       0.0%      0.0%      0.0%
 matmuls total                               7361     100.0%      0.0%      0.0%
 number of processed stacks                   877     100.0%      0.0%      0.0%
 average stack size                                     8.4       0.0       0.0
 marketing flops                     1.413434E+06
 -------------------------------------------------------------------------------
 # multiplications                            600
 max memory usage/rank               1.821938E+09
 # max total images/rank                        1
 # max 3D layers                                1
 # MPI messages exchanged                       0
 -------------------------------------------------------------------------------

 -------------------------------------------------------------------------------
 -                                                                             -
 -                                DBM STATISTICS                               -
 -                                                                             -
 -------------------------------------------------------------------------------
    M  x    N  x    K                                          COUNT     PERCENT
 -------------------------------------------------------------------------------

 -------------------------------------------------------------------------------
 -                                                                             -
 -                                GRID STATISTICS                              -
 -                                                                             -
 -------------------------------------------------------------------------------
 LP    KERNEL             BACKEND                              COUNT     PERCENT
 0     collocate ortho    REF                                  12720      24.19%
 0     integrate ortho    REF                                  11934      22.70%
 1     collocate ortho    REF                                  10770      20.48%
 1     integrate ortho    REF                                  10132      19.27%
 2     collocate ortho    REF                                   3456       6.57%
 2     integrate ortho    REF                                   3264       6.21%
 0     collocate general  REF                                    102       0.19%
 0     integrate general  REF                                    102       0.19%
 2     collocate general  REF                                     51       0.10%
 2     integrate general  REF                                     51       0.10%
 -------------------------------------------------------------------------------

 MEMORY| Estimated peak process memory [MiB]                                1792

 -------------------------------------------------------------------------------
 ----                             MULTIGRID INFO                            ----
 -------------------------------------------------------------------------------
 count for grid        1:           2542          cutoff [a.u.]          200.00
 count for grid        2:           1693          cutoff [a.u.]           66.67
 count for grid        3:           1333          cutoff [a.u.]           22.22
 count for grid        4:           1091          cutoff [a.u.]            7.41
 total gridlevel count  :           6659

 -------------------------------------------------------------------------------
 -                                                                             -
 -                           R E F E R E N C E S                               -
 -                                                                             -
 -------------------------------------------------------------------------------
 
 CP2K version 2023.1 (Development Version), the CP2K developers group (2023).
 CP2K is freely available from https://www.cp2k.org/ .

 Kuehne,Thomas D.; Iannuzzi,Marcella; Del Ben,Mauro;
 Rybkin,Vladimir V.; Seewald,Patrick; Stein,Frederick; Laino,Teodoro;
 Khaliullin,Rustam Z.; Schuett,Ole; Schiffmann,Florian; Golze,Dorothea;
 Wilhelm,Jan; Chulkov,Sergey; Bani-Hashemian,Mohammad Hossein;
 Weber,Valery; Borstnik,Urban; Taillefumier,Mathieu;
 Jakobovits,Alice Shoshana; Lazzaro,Alfio; Pabst,Hans; Mueller,Tiziano;
 Schade,Robert; Guidon,Manuel; Andermatt,Samuel; Holmberg,Nico;
 Schenter,Gregory K.; Hehn,Anna; Bussy,Augustin; Belleflamme,Fabian;
 Tabacchi,Gloria; Gloess,Andreas; Lass,Michael; Bethune,Iain;
 Mundy,Christopher J.; Plessl,Christian; Watkins,Matt;
 VandeVondele,Joost; Krack,Matthias; Hutter,Juerg. 
 The Journal of Chemical Physics, 152 (19), (2020). 
 CP2K: An electronic structure and molecular dynamics software package -
 Quickstep: Efficient and accurate electronic structure calculations.
 https://doi.org/10.1063/5.0007045

 Schuett, Ole; Messmer, Peter; Hutter, Juerg; VandeVondele, Joost. 
 Electronic Structure Calculations on Graphics Processing Units, John
 Wiley & Sons, Ltd, 173-190 (2016). 
 GPU-Accelerated Sparse Matrix-Matrix Multiplication for
 Linear Scaling Density Functional Theory.
 https://doi.org/10.1002/9781118670712.ch8

 Borstnik, U; VandeVondele, J; Weber, V; Hutter, J. 
 PARALLEL COMPUTING, 40 (5-6), 47-58 (2014). 
 Sparse matrix multiplication: The distributed block-compressed sparse
 row library.
 https://doi.org/10.1016/j.parco.2014.03.012

 Hutter, J; Iannuzzi, M; Schiffmann, F; VandeVondele, J. 
 WIREs Comput Mol Sci., 4 (1), 15-25 (2014). 
 CP2K: atomistic simulations of condensed matter systems.
 https://doi.org/10.1002/wcms.1159

 VandeVondele, J; Hutter, J. 
 JOURNAL OF CHEMICAL PHYSICS, 127 (11), 114105 (2007). 
 Gaussian basis sets for accurate calculations on molecular systems in
 gas and condensed phases.
 https://doi.org/10.1063/1.2770708

 Genovese, L; Deutsch, T; Goedecker, S. 
 JOURNAL OF CHEMICAL PHYSICS, 127 (5), 054704 (2007). 
 Efficient and accurate three-dimensional Poisson solver for surface
 problems.
 https://doi.org/10.1063/1.2754685

 Genovese, L; Deutsch, T; Neelov, A; Goedecker, S; Beylkin, G. 
 JOURNAL OF CHEMICAL PHYSICS, 125 (7), 074105 (2006). 
 Efficient solution of Poisson's equation with free boundary conditions.
 https://doi.org/10.1063/1.2335442

 Krack, M. 
 THEORETICAL CHEMISTRY ACCOUNTS, 114 (1-3), 145-152 (2005). 
 Pseudopotentials for H to Kr optimized for gradient-corrected
 exchange-correlation functionals.
 https://doi.org/10.1007/s00214-005-0655-y

 Frigo, M; Johnson, SG. 
 PROCEEDINGS OF THE IEEE, 93 (2), 216-231 (2005). 
 The design and implementation of FFTW3.
 https://doi.org/10.1109/JPROC.2004.840301

 VandeVondele, J; Hutter, J. 
 JOURNAL OF CHEMICAL PHYSICS, 118 (10), 4365-4369 (2003). 
 An efficient orbital transformation method for electronic structure
 calculations.
 https://doi.org/10.1063/1.1543154

 Lippert, G; Hutter, J; Parrinello, M. 
 THEORETICAL CHEMISTRY ACCOUNTS, 103 (2), 124-140 (1999). 
 The Gaussian and augmented-plane-wave density functional method for ab
 initio molecular dynamics simulations.
 https://doi.org/10.1007/s002140050523

 Krack, M; Parrinello, M. 
 PHYSICAL CHEMISTRY CHEMICAL PHYSICS, 2 (10), 2105-2112 (2000). 
 All-electron ab-initio molecular dynamics.
 https://doi.org/10.1039/b001167n

 Hartwigsen, C; Goedecker, S; Hutter, J. 
 PHYSICAL REVIEW B, 58 (7), 3641-3662 (1998). 
 Relativistic separable dual-space Gaussian pseudopotentials from H to Rn.
 https://doi.org/10.1103/PhysRevB.58.3641

 Perdew, JP; Burke, K; Ernzerhof, M. 
 PHYSICAL REVIEW LETTERS, 77 (18), 3865-3868 (1996). 
 Generalized gradient approximation made simple.
 https://doi.org/10.1103/PhysRevLett.77.3865

 Goedecker, S; Teter, M; Hutter, J. 
 PHYSICAL REVIEW B, 54 (3), 1703-1710 (1996). 
 Separable dual-space Gaussian pseudopotentials.
 https://doi.org/10.1103/PhysRevB.54.1703


 -------------------------------------------------------------------------------
 -                                                                             -
 -                                T I M I N G                                  -
 -                                                                             -
 -------------------------------------------------------------------------------
 SUBROUTINE                       CALLS  ASD         SELF TIME        TOTAL TIME
                                MAXIMUM       AVERAGE  MAXIMUM  AVERAGE  MAXIMUM
 CP2K                                 1  1.0    0.083    0.083  172.173  172.173
 qs_energies                          1  2.0    0.000    0.000  168.012  168.012
 scf_env_do_scf                       1  3.0    0.000    0.000  163.406  163.406
 scf_env_do_scf_inner_loop           17  4.0    0.001    0.001  151.900  151.900
 qs_ks_update_qs_env                 18  5.0    0.000    0.000  147.825  147.825
 rebuild_ks_matrix                   17  6.0    0.000    0.000  147.824  147.824
 qs_ks_build_kohn_sham_matrix        17  7.0    0.004    0.004  147.824  147.824
 pw_transfer                        372 10.0    0.030    0.030   91.958   91.958
 fft_wrap_pw1pw2                    355 11.0    0.004    0.004   91.734   91.734
 fft_wrap_pw1pw2_200                244 12.3    7.003    7.003   89.133   89.133
 qs_vxc_create                       17  8.0    0.000    0.000   69.969   69.969
 xc_vxc_pw_create                    17  9.0    0.892    0.892   69.968   69.968
 pw_poisson_solve                    17  8.0   19.535   19.535   52.880   52.880
 fft3d_s                            356 13.0   44.695   44.695   44.714   44.714
 xc_pw_derive                       102 11.0    0.001    0.001   41.445   41.445
 xc_rho_set_and_dset_create          17 10.0    0.829    0.829   39.100   39.100
 xc_pw_divergence                    17 10.0    0.001    0.001   29.554   29.554
 pw_gather_s                        182 12.6   24.449   24.449   24.449   24.449
 xc_functional_eval                 323 10.1    0.001    0.001   19.693   19.693
 pbe_lda_eval                       323 11.1   19.692   19.692   19.692   19.692
 qs_rho_update_rho_low               18  5.0    0.000    0.000   16.946   16.946
 calculate_rho_elec                  18  6.0    0.457    0.457   16.936   16.936
 density_rs2pw                       18  7.0    0.001    0.001   15.627   15.627
 pw_scatter_s                       173 13.4   15.451   15.451   15.451   15.451
 ps_wavelet_solve                    17  9.0   14.818   14.818   15.239   15.239
 init_scf_loop                        1  4.0    0.000    0.000   11.505   11.505
 sum_up_and_integrate                17  8.0    0.593    0.593    9.812    9.812
 integrate_v_rspace                  17  9.0    0.001    0.001    9.219    9.219
 potential_pw2rs                     17 10.0    0.018    0.018    8.818    8.818
 prepare_gapw_den                    17  8.0    0.000    0.000    8.246    8.246
 put_rho0_on_grid                    17  9.0    0.439    0.439    8.215    8.215
 qs_init_subsys                       1  2.0    0.001    0.001    3.969    3.969
 qs_env_setup                         1  3.0    0.000    0.000    3.965    3.965
 qs_env_rebuild_pw_env                2  3.5    0.000    0.000    3.965    3.965
 pw_env_rebuild                       1  5.0    0.000    0.000    3.965    3.965
 pw_grid_setup                        4  6.0    0.000    0.000    3.962    3.962
 pw_grid_setup_internal               4  7.0    0.088    0.088    3.962    3.962
 -------------------------------------------------------------------------------

 The number of warnings for this run is : 1
 
 -------------------------------------------------------------------------------
  **** **** ******  **  PROGRAM ENDED AT                 2023-04-05 09:01:55.404
 ***** ** ***  *** **   PROGRAM RAN ON                               eu-g5-002-3
 **    ****   ******    PROGRAM RAN BY                                 jbachmann
 ***** **    ** ** **   PROGRAM PROCESS ID                                126367
  **** **  *******  **  PROGRAM STOPPED IN /cluster/home/jbachmann/Molecular-and
                                           -Materials-Modelling-FS2023/exercise7
                                           /PBE/SZV
