 DBCSR| CPU Multiplication driver                                           XSMM
 DBCSR| Multrec recursion limit                                              512
 DBCSR| Multiplication stack size                                           1000
 DBCSR| Maximum elements for images                                    UNLIMITED
 DBCSR| Multiplicative factor virtual images                                   1
 DBCSR| Use multiplication densification                                       T
 DBCSR| Multiplication size stacks                                             3
 DBCSR| Use memory pool for CPU allocation                                     F
 DBCSR| Number of 3D layers                                               SINGLE
 DBCSR| Use MPI memory allocation                                              F
 DBCSR| Use RMA algorithm                                                      F
 DBCSR| Use Communication thread                                               T
 DBCSR| Communication thread load                                             87
 DBCSR| MPI: My node id                                                        0
 DBCSR| MPI: Number of nodes                                                   9
 DBCSR| OMP: Current number of threads                                         1
 DBCSR| OMP: Max number of threads                                             1
 DBCSR| Split modifier for TAS multiplication algorithm                  1.0E+00


  **** **** ******  **  PROGRAM STARTED AT               2023-03-08 08:45:01.626
 ***** ** ***  *** **   PROGRAM STARTED ON                            eu-a2p-478
 **    ****   ******    PROGRAM STARTED BY                             jbachmann
 ***** **    ** ** **   PROGRAM PROCESS ID                                 69498
  **** **  *******  **  PROGRAM STARTED IN /cluster/home/jbachmann/Molecular-and
                                           -Materials-Modelling-FS2023/exercise-
                                           3_files

 CP2K| version string:                                          CP2K version 8.2
 CP2K| source code revision number:                                  git:310b7ab
 CP2K| cp2kflags: omp fftw3 libxc parallel mpi3 scalapack xsmm plumed2 spglib li
 CP2K|            bvori libbqb
 CP2K| is freely available from                            https://www.cp2k.org/
 CP2K| Program compiled at                         Tue Aug  3 16:40:32 CEST 2021
 CP2K| Program compiled on                                           eu-g1-012-3
 CP2K| Program compiled for                     Linux-x86-64-gfortran-opt-nolint
 CP2K| Data directory path      /cluster/apps/nss/gcc-6.3.0/cp2k/8.2/x86_64/data
 CP2K| Input file name                               BFGS-octahedron/geo-opt.inp

 GLOBAL| Force Environment number                                              1
 GLOBAL| Basis set file name                                           BASIS_SET
 GLOBAL| Potential file name                                           POTENTIAL
 GLOBAL| MM Potential file name                                     MM_POTENTIAL
 GLOBAL| Coordinate file name                                     octahedron.xyz
 GLOBAL| Method name                                                        CP2K
 GLOBAL| Project name                                               optimization
 GLOBAL| Run type                                                        GEO_OPT
 GLOBAL| FFT library                                                       FFTW3
 GLOBAL| Diagonalization library                                       ScaLAPACK
 GLOBAL| Orthonormality check for eigenvectors                          DISABLED
 GLOBAL| Matrix multiplication library                                    SCALAP
 GLOBAL| All-to-all communication in single precision                          F
 GLOBAL| FFTs using library dependent lengths                                  F
 GLOBAL| Grid backend                                                       AUTO
 GLOBAL| Global print level                                                  LOW
 GLOBAL| MPI I/O enabled                                                       T
 GLOBAL| Total number of message passing processes                             9
 GLOBAL| Number of threads for this process                                    1
 GLOBAL| This output is from process                                           0
 GLOBAL| CPU model name                          AMD EPYC 7763 64-Core Processor
 GLOBAL| CPUID                                                              1002

 MEMORY| system memory details [Kb]
 MEMORY|                        rank 0           min           max       average
 MEMORY| MemTotal            261490844     261490844     261490844     261490844
 MEMORY| MemFree             226745128     226745128     226745128     226745128
 MEMORY| Buffers                  1052          1052          1052          1052
 MEMORY| Cached               10975620      10975620      10975620      10975620
 MEMORY| Slab                  1691908       1691908       1691908       1691908
 MEMORY| SReclaimable           666120        666120        666120        666120
 MEMORY| MemLikelyFree       238387920     238387920     238387920     238387920



                      ************* ******** ***********   
                     ************* **********************  
                     ****     **** ****      ***********   
                     ******** ****  *******     ****       
                     *******  ****   *******   ****        
                     ****     ****       ****  ****        
                     ****     **** **********  ****        
                      ****     **** ********    ****       
                     FRONTIERS IN SIMULATION TECHNOLOGY    
                                                           
                        C.J. Mundy, S. Balasubramanian,    
                     Ken Bagchi, J. Hutter, Ari Seitsonen  
                      IFW Kuo, T. Laino, J. VandeVondele   
                                 Version 1.0               

                                                           

 EWALD|                                                                 not used

 *******************************************************************************
 *   ___                                                                       *
 *  /   \                                                                      *
 * [ABORT]                                                                     *
 *  \___/               Coordinate file <octahedron.xyz> not found.            *
 *    |                                                                        *
 *  O/|                                                                        *
 * /| |                                                                        *
 * / \                                                          topology.F:553 *
 *******************************************************************************


 ===== Routine Calling Stack ===== 

            5 coordinate_control
            4 topology_control
            3 fist_init
            2 fist_create_force_env
            1 CP2K
 DBCSR| CPU Multiplication driver                                           XSMM
 DBCSR| Multrec recursion limit                                              512
 DBCSR| Multiplication stack size                                           1000
 DBCSR| Maximum elements for images                                    UNLIMITED
 DBCSR| Multiplicative factor virtual images                                   1
 DBCSR| Use multiplication densification                                       T
 DBCSR| Multiplication size stacks                                             3
 DBCSR| Use memory pool for CPU allocation                                     F
 DBCSR| Number of 3D layers                                               SINGLE
 DBCSR| Use MPI memory allocation                                              F
 DBCSR| Use RMA algorithm                                                      F
 DBCSR| Use Communication thread                                               T
 DBCSR| Communication thread load                                             87
 DBCSR| MPI: My node id                                                        0
 DBCSR| MPI: Number of nodes                                                   9
 DBCSR| OMP: Current number of threads                                         1
 DBCSR| OMP: Max number of threads                                             1
 DBCSR| Split modifier for TAS multiplication algorithm                  1.0E+00


  **** **** ******  **  PROGRAM STARTED AT               2023-03-08 08:50:15.050
 ***** ** ***  *** **   PROGRAM STARTED ON                            eu-a2p-478
 **    ****   ******    PROGRAM STARTED BY                             jbachmann
 ***** **    ** ** **   PROGRAM PROCESS ID                                 70838
  **** **  *******  **  PROGRAM STARTED IN /cluster/home/jbachmann/Molecular-and
                                           -Materials-Modelling-FS2023/exercise-
                                           3_files/BFGS-octahedron

 CP2K| version string:                                          CP2K version 8.2
 CP2K| source code revision number:                                  git:310b7ab
 CP2K| cp2kflags: omp fftw3 libxc parallel mpi3 scalapack xsmm plumed2 spglib li
 CP2K|            bvori libbqb
 CP2K| is freely available from                            https://www.cp2k.org/
 CP2K| Program compiled at                         Tue Aug  3 16:40:32 CEST 2021
 CP2K| Program compiled on                                           eu-g1-012-3
 CP2K| Program compiled for                     Linux-x86-64-gfortran-opt-nolint
 CP2K| Data directory path      /cluster/apps/nss/gcc-6.3.0/cp2k/8.2/x86_64/data
 CP2K| Input file name                                               geo-opt.inp

 GLOBAL| Force Environment number                                              1
 GLOBAL| Basis set file name                                           BASIS_SET
 GLOBAL| Potential file name                                           POTENTIAL
 GLOBAL| MM Potential file name                                     MM_POTENTIAL
 GLOBAL| Coordinate file name                                     octahedron.xyz
 GLOBAL| Method name                                                        CP2K
 GLOBAL| Project name                                               optimization
 GLOBAL| Run type                                                        GEO_OPT
 GLOBAL| FFT library                                                       FFTW3
 GLOBAL| Diagonalization library                                       ScaLAPACK
 GLOBAL| Orthonormality check for eigenvectors                          DISABLED
 GLOBAL| Matrix multiplication library                                    SCALAP
 GLOBAL| All-to-all communication in single precision                          F
 GLOBAL| FFTs using library dependent lengths                                  F
 GLOBAL| Grid backend                                                       AUTO
 GLOBAL| Global print level                                                  LOW
 GLOBAL| MPI I/O enabled                                                       T
 GLOBAL| Total number of message passing processes                             9
 GLOBAL| Number of threads for this process                                    1
 GLOBAL| This output is from process                                           0
 GLOBAL| CPU model name                          AMD EPYC 7763 64-Core Processor
 GLOBAL| CPUID                                                              1002

 MEMORY| system memory details [Kb]
 MEMORY|                        rank 0           min           max       average
 MEMORY| MemTotal            261490844     261490844     261490844     261490844
 MEMORY| MemFree             204361688     204361688     204361688     204361688
 MEMORY| Buffers                  1052          1052          1052          1052
 MEMORY| Cached               23640392      23640392      23640392      23640392
 MEMORY| Slab                  1970312       1970312       1970312       1970312
 MEMORY| SReclaimable           949280        949280        949280        949280
 MEMORY| MemLikelyFree       228952412     228952412     228952412     228952412



                      ************* ******** ***********   
                     ************* **********************  
                     ****     **** ****      ***********   
                     ******** ****  *******     ****       
                     *******  ****   *******   ****        
                     ****     ****       ****  ****        
                     ****     **** **********  ****        
                      ****     **** ********    ****       
                     FRONTIERS IN SIMULATION TECHNOLOGY    
                                                           
                        C.J. Mundy, S. Balasubramanian,    
                     Ken Bagchi, J. Hutter, Ari Seitsonen  
                      IFW Kuo, T. Laino, J. VandeVondele   
                                 Version 1.0               

                                                           

 EWALD|                                                                 not used

 GENERATE|  Preliminary Number of Bonds generated:                             0
 GENERATE|  Achieved consistency in connectivity generation.
 CHARGE_INFO| Total Charge of the Classical System:                     0.000000

 FORCEFIELD| WARNING: A non Critical ForceField parameter is missing! CP2K GOES!
 FORCEFIELD| Non critical parameters are:Urey-Bradley,Torsions,Impropers, Opbends and 1-4
 FORCEFIELD| All missing parameters will not contribute to the potential energy!
 FORCEFIELD| Activate the print key FF_INFO to have a list of missing parameters


 SPLINE_INFO| Generating 1 splines for NONBONDED14 interactions 
              Due to 1 different atomic kinds
  ...1
 SPLINE_INFO| Number of unique splines computed:            1
 SPLINE_INFO| Done

 SPLINE_INFO| Generating 1 splines for NONBONDED interactions 
              Due to 1 different atomic kinds
  ...1
 SPLINE_INFO| Number of unique splines computed:            1
 SPLINE_INFO| Done

 BFGS| Use rational function optimization for step estimation:                NO
 BFGS| Use model Hessian for initial guess:                                  YES
 BFGS| Restart Hessian:                                                       NO
 BFGS| Trust radius:                                                       0.472

 *******************************************************************************
 ***                     STARTING GEOMETRY OPTIMIZATION                      ***
 ***                                   BFGS                                  ***
 *******************************************************************************

 ENERGY| Total FORCE_EVAL ( FIST ) energy [a.u.]:             -0.009808716416610

 --------  Informations at step =     0 ------------
  Optimization Method        =                 BFGS
  Total Energy               =        -0.0098087164
  Used time                  =                0.011
 ---------------------------------------------------

 --------------------------
 OPTIMIZATION STEP:      1
 --------------------------

 ENERGY| Total FORCE_EVAL ( FIST ) energy [a.u.]:             -0.023108660773109

 --------  Informations at step =     1 ------------
  Optimization Method        =                 BFGS
  Total Energy               =        -0.0231086608
  Real energy change         =        -0.0132999444
  Predicted change in energy =        -0.0148842604
  Scaling factor             =         0.0000000000
  Step size                  =         0.3265381432
  Trust radius               =         0.4724315332
  Decrease in energy         =                  YES
  Used time                  =                0.005

  Convergence check :
  Max. step size             =         0.3265381432
  Conv. limit for step size  =         0.0010000000
  Convergence in step size   =                   NO
  RMS step size              =         0.0511006238
  Conv. limit for RMS step   =         0.0003000000
  Convergence in RMS step    =                   NO
  Max. gradient              =         0.0050920991
  Conv. limit for gradients  =         0.0001000000
  Conv. for gradients        =                   NO
  RMS gradient               =         0.0010156607
  Conv. limit for RMS grad.  =         0.0000300000
  Conv. for gradients        =                   NO
 ---------------------------------------------------

 --------------------------
 OPTIMIZATION STEP:      2
 --------------------------

 ENERGY| Total FORCE_EVAL ( FIST ) energy [a.u.]:             -0.024417345893200

 --------  Informations at step =     2 ------------
  Optimization Method        =                 BFGS
  Total Energy               =        -0.0244173459
  Real energy change         =        -0.0013086851
  Predicted change in energy =        -0.0007466407
  Scaling factor             =         0.0000000000
  Step size                  =         0.0671497277
  Trust radius               =         0.4724315332
  Decrease in energy         =                  YES
  Used time                  =                0.007

  Convergence check :
  Max. step size             =         0.0671497277
  Conv. limit for step size  =         0.0010000000
  Convergence in step size   =                   NO
  RMS step size              =         0.0129122664
  Conv. limit for RMS step   =         0.0003000000
  Convergence in RMS step    =                   NO
  Max. gradient              =         0.0036774815
  Conv. limit for gradients  =         0.0001000000
  Conv. for gradients        =                   NO
  RMS gradient               =         0.0007839698
  Conv. limit for RMS grad.  =         0.0000300000
  Conv. for gradients        =                   NO
 ---------------------------------------------------

 --------------------------
 OPTIMIZATION STEP:      3
 --------------------------

 ENERGY| Total FORCE_EVAL ( FIST ) energy [a.u.]:             -0.027005426633509

 --------  Informations at step =     3 ------------
  Optimization Method        =                 BFGS
  Total Energy               =        -0.0270054266
  Real energy change         =        -0.0025880807
  Predicted change in energy =        -0.0019146488
  Scaling factor             =         0.0000000000
  Step size                  =         0.2145265188
  Trust radius               =         0.4724315332
  Decrease in energy         =                  YES
  Used time                  =                0.022

  Convergence check :
  Max. step size             =         0.2145265188
  Conv. limit for step size  =         0.0010000000
  Convergence in step size   =                   NO
  RMS step size              =         0.0429691184
  Conv. limit for RMS step   =         0.0003000000
  Convergence in RMS step    =                   NO
  Max. gradient              =         0.0012349120
  Conv. limit for gradients  =         0.0001000000
  Conv. for gradients        =                   NO
  RMS gradient               =         0.0003714054
  Conv. limit for RMS grad.  =         0.0000300000
  Conv. for gradients        =                   NO
 ---------------------------------------------------

 --------------------------
 OPTIMIZATION STEP:      4
 --------------------------

 ENERGY| Total FORCE_EVAL ( FIST ) energy [a.u.]:             -0.027958873705126

 --------  Informations at step =     4 ------------
  Optimization Method        =                 BFGS
  Total Energy               =        -0.0279588737
  Real energy change         =        -0.0009534471
  Predicted change in energy =        -0.0006483032
  Scaling factor             =         0.0000000000
  Step size                  =         0.1585296576
  Trust radius               =         0.4724315332
  Decrease in energy         =                  YES
  Used time                  =                0.013

  Convergence check :
  Max. step size             =         0.1585296576
  Conv. limit for step size  =         0.0010000000
  Convergence in step size   =                   NO
  RMS step size              =         0.0329191737
  Conv. limit for RMS step   =         0.0003000000
  Convergence in RMS step    =                   NO
  Max. gradient              =         0.0007847250
  Conv. limit for gradients  =         0.0001000000
  Conv. for gradients        =                   NO
  RMS gradient               =         0.0002402122
  Conv. limit for RMS grad.  =         0.0000300000
  Conv. for gradients        =                   NO
 ---------------------------------------------------

 --------------------------
 OPTIMIZATION STEP:      5
 --------------------------

 ENERGY| Total FORCE_EVAL ( FIST ) energy [a.u.]:             -0.028472828394639

 --------  Informations at step =     5 ------------
  Optimization Method        =                 BFGS
  Total Energy               =        -0.0284728284
  Real energy change         =        -0.0005139547
  Predicted change in energy =        -0.0003725770
  Scaling factor             =         0.0000000000
  Step size                  =         0.1639477800
  Trust radius               =         0.4724315332
  Decrease in energy         =                  YES
  Used time                  =                0.009

  Convergence check :
  Max. step size             =         0.1639477800
  Conv. limit for step size  =         0.0010000000
  Convergence in step size   =                   NO
  RMS step size              =         0.0351900942
  Conv. limit for RMS step   =         0.0003000000
  Convergence in RMS step    =                   NO
  Max. gradient              =         0.0005346153
  Conv. limit for gradients  =         0.0001000000
  Conv. for gradients        =                   NO
  RMS gradient               =         0.0001905577
  Conv. limit for RMS grad.  =         0.0000300000
  Conv. for gradients        =                   NO
 ---------------------------------------------------

 --------------------------
 OPTIMIZATION STEP:      6
 --------------------------

 ENERGY| Total FORCE_EVAL ( FIST ) energy [a.u.]:             -0.028663339938003

 --------  Informations at step =     6 ------------
  Optimization Method        =                 BFGS
  Total Energy               =        -0.0286633399
  Real energy change         =        -0.0001905115
  Predicted change in energy =        -0.0001373589
  Scaling factor             =         0.0000000000
  Step size                  =         0.1160283876
  Trust radius               =         0.4724315332
  Decrease in energy         =                  YES
  Used time                  =                0.009

  Convergence check :
  Max. step size             =         0.1160283876
  Conv. limit for step size  =         0.0010000000
  Convergence in step size   =                   NO
  RMS step size              =         0.0264472555
  Conv. limit for RMS step   =         0.0003000000
  Convergence in RMS step    =                   NO
  Max. gradient              =         0.0006246852
  Conv. limit for gradients  =         0.0001000000
  Conv. for gradients        =                   NO
  RMS gradient               =         0.0001926314
  Conv. limit for RMS grad.  =         0.0000300000
  Conv. for gradients        =                   NO
 ---------------------------------------------------

 --------------------------
 OPTIMIZATION STEP:      7
 --------------------------

 ENERGY| Total FORCE_EVAL ( FIST ) energy [a.u.]:             -0.028765015011606

 --------  Informations at step =     7 ------------
  Optimization Method        =                 BFGS
  Total Energy               =        -0.0287650150
  Real energy change         =        -0.0001016751
  Predicted change in energy =        -0.0000672472
  Scaling factor             =         0.0000000000
  Step size                  =         0.0764401025
  Trust radius               =         0.4724315332
  Decrease in energy         =                  YES
  Used time                  =                0.009

  Convergence check :
  Max. step size             =         0.0764401025
  Conv. limit for step size  =         0.0010000000
  Convergence in step size   =                   NO
  RMS step size              =         0.0197878600
  Conv. limit for RMS step   =         0.0003000000
  Convergence in RMS step    =                   NO
  Max. gradient              =         0.0008569226
  Conv. limit for gradients  =         0.0001000000
  Conv. for gradients        =                   NO
  RMS gradient               =         0.0002051663
  Conv. limit for RMS grad.  =         0.0000300000
  Conv. for gradients        =                   NO
 ---------------------------------------------------

 --------------------------
 OPTIMIZATION STEP:      8
 --------------------------

 ENERGY| Total FORCE_EVAL ( FIST ) energy [a.u.]:             -0.028907145490714

 --------  Informations at step =     8 ------------
  Optimization Method        =                 BFGS
  Total Energy               =        -0.0289071455
  Real energy change         =        -0.0001421305
  Predicted change in energy =        -0.0000877143
  Scaling factor             =         0.0000000000
  Step size                  =         0.0772518711
  Trust radius               =         0.4724315332
  Decrease in energy         =                  YES
  Used time                  =                0.023

  Convergence check :
  Max. step size             =         0.0772518711
  Conv. limit for step size  =         0.0010000000
  Convergence in step size   =                   NO
  RMS step size              =         0.0249315117
  Conv. limit for RMS step   =         0.0003000000
  Convergence in RMS step    =                   NO
  Max. gradient              =         0.0010678332
  Conv. limit for gradients  =         0.0001000000
  Conv. for gradients        =                   NO
  RMS gradient               =         0.0002211770
  Conv. limit for RMS grad.  =         0.0000300000
  Conv. for gradients        =                   NO
 ---------------------------------------------------

 --------------------------
 OPTIMIZATION STEP:      9
 --------------------------

 ENERGY| Total FORCE_EVAL ( FIST ) energy [a.u.]:             -0.029233661431943

 --------  Informations at step =     9 ------------
  Optimization Method        =                 BFGS
  Total Energy               =        -0.0292336614
  Real energy change         =        -0.0003265159
  Predicted change in energy =        -0.0002015472
  Scaling factor             =         0.0000000000
  Step size                  =         0.1480546527
  Trust radius               =         0.4724315332
  Decrease in energy         =                  YES
  Used time                  =                0.017

  Convergence check :
  Max. step size             =         0.1480546527
  Conv. limit for step size  =         0.0010000000
  Convergence in step size   =                   NO
  RMS step size              =         0.0504460605
  Conv. limit for RMS step   =         0.0003000000
  Convergence in RMS step    =                   NO
  Max. gradient              =         0.0012876071
  Conv. limit for gradients  =         0.0001000000
  Conv. for gradients        =                   NO
  RMS gradient               =         0.0002410174
  Conv. limit for RMS grad.  =         0.0000300000
  Conv. for gradients        =                   NO
 ---------------------------------------------------

 --------------------------
 OPTIMIZATION STEP:     10
 --------------------------

 ENERGY| Total FORCE_EVAL ( FIST ) energy [a.u.]:             -0.029913109736740

 --------  Informations at step =    10 ------------
  Optimization Method        =                 BFGS
  Total Energy               =        -0.0299131097
  Real energy change         =        -0.0006794483
  Predicted change in energy =        -0.0004249070
  Scaling factor             =         0.0000000000
  Step size                  =         0.3073127048
  Trust radius               =         0.4724315332
  Decrease in energy         =                  YES
  Used time                  =                0.009

  Convergence check :
  Max. step size             =         0.3073127048
  Conv. limit for step size  =         0.0010000000
  Convergence in step size   =                   NO
  RMS step size              =         0.1039637537
  Conv. limit for RMS step   =         0.0003000000
  Convergence in RMS step    =                   NO
  Max. gradient              =         0.0013195871
  Conv. limit for gradients  =         0.0001000000
  Conv. for gradients        =                   NO
  RMS gradient               =         0.0002445646
  Conv. limit for RMS grad.  =         0.0000300000
  Conv. for gradients        =                   NO
 ---------------------------------------------------

 --------------------------
 OPTIMIZATION STEP:     11
 --------------------------

  Step is scaled; Scaling factor =  0.93536

 ENERGY| Total FORCE_EVAL ( FIST ) energy [a.u.]:             -0.030519598368601

 --------  Informations at step =    11 ------------
  Optimization Method        =                 BFGS
  Total Energy               =        -0.0305195984
  Real energy change         =        -0.0006064886
  Predicted change in energy =        -0.0006029802
  Scaling factor             =         0.9353640442
  Step size                  =         0.4724315332
  Trust radius               =         0.4724315332
  Decrease in energy         =                  YES
  Used time                  =                0.009

  Convergence check :
  Max. step size             =         0.4724315332
  Conv. limit for step size  =         0.0010000000
  Convergence in step size   =                   NO
  RMS step size              =         0.1602815410
  Conv. limit for RMS step   =         0.0003000000
  Convergence in RMS step    =                   NO
  Max. gradient              =         0.0012867690
  Conv. limit for gradients  =         0.0001000000
  Conv. for gradients        =                   NO
  RMS gradient               =         0.0002854912
  Conv. limit for RMS grad.  =         0.0000300000
  Conv. for gradients        =                   NO
 ---------------------------------------------------

 --------------------------
 OPTIMIZATION STEP:     12
 --------------------------

 ENERGY| Total FORCE_EVAL ( FIST ) energy [a.u.]:             -0.030814780156630

 --------  Informations at step =    12 ------------
  Optimization Method        =                 BFGS
  Total Energy               =        -0.0308147802
  Real energy change         =        -0.0002951818
  Predicted change in energy =        -0.0001716274
  Scaling factor             =         0.9353640442
  Step size                  =         0.1151484383
  Trust radius               =         0.4724315332
  Decrease in energy         =                  YES
  Used time                  =                0.009

  Convergence check :
  Max. step size             =         0.1151484383
  Conv. limit for step size  =         0.0010000000
  Convergence in step size   =                   NO
  RMS step size              =         0.0284620832
  Conv. limit for RMS step   =         0.0003000000
  Convergence in RMS step    =                   NO
  Max. gradient              =         0.0010303193
  Conv. limit for gradients  =         0.0001000000
  Conv. for gradients        =                   NO
  RMS gradient               =         0.0002351579
  Conv. limit for RMS grad.  =         0.0000300000
  Conv. for gradients        =                   NO
 ---------------------------------------------------

 --------------------------
 OPTIMIZATION STEP:     13
 --------------------------

 ENERGY| Total FORCE_EVAL ( FIST ) energy [a.u.]:             -0.031797388095987

 --------  Informations at step =    13 ------------
  Optimization Method        =                 BFGS
  Total Energy               =        -0.0317973881
  Real energy change         =        -0.0009826079
  Predicted change in energy =        -0.0006570421
  Scaling factor             =         0.9353640442
  Step size                  =         0.4118679171
  Trust radius               =         0.4724315332
  Decrease in energy         =                  YES
  Used time                  =                0.009

  Convergence check :
  Max. step size             =         0.4118679171
  Conv. limit for step size  =         0.0010000000
  Convergence in step size   =                   NO
  RMS step size              =         0.0704103326
  Conv. limit for RMS step   =         0.0003000000
  Convergence in RMS step    =                   NO
  Max. gradient              =         0.0007654476
  Conv. limit for gradients  =         0.0001000000
  Conv. for gradients        =                   NO
  RMS gradient               =         0.0001948592
  Conv. limit for RMS grad.  =         0.0000300000
  Conv. for gradients        =                   NO
 ---------------------------------------------------

 --------------------------
 OPTIMIZATION STEP:     14
 --------------------------

  Step is scaled; Scaling factor =  0.79535

 ENERGY| Total FORCE_EVAL ( FIST ) energy [a.u.]:             -0.032637895836693

 --------  Informations at step =    14 ------------
  Optimization Method        =                 BFGS
  Total Energy               =        -0.0326378958
  Real energy change         =        -0.0008405077
  Predicted change in energy =        -0.0005802282
  Scaling factor             =         0.7953477576
  Step size                  =         0.4724315332
  Trust radius               =         0.4724315332
  Decrease in energy         =                  YES
  Used time                  =                0.009

  Convergence check :
  Max. step size             =         0.4724315332
  Conv. limit for step size  =         0.0010000000
  Convergence in step size   =                   NO
  RMS step size              =         0.0834051892
  Conv. limit for RMS step   =         0.0003000000
  Convergence in RMS step    =                   NO
  Max. gradient              =         0.0005671711
  Conv. limit for gradients  =         0.0001000000
  Conv. for gradients        =                   NO
  RMS gradient               =         0.0001874160
  Conv. limit for RMS grad.  =         0.0000300000
  Conv. for gradients        =                   NO
 ---------------------------------------------------

 --------------------------
 OPTIMIZATION STEP:     15
 --------------------------

  Step is scaled; Scaling factor =  0.35212

 ENERGY| Total FORCE_EVAL ( FIST ) energy [a.u.]:             -0.033062262590808

 --------  Informations at step =    15 ------------
  Optimization Method        =                 BFGS
  Total Energy               =        -0.0330622626
  Real energy change         =        -0.0004243668
  Predicted change in energy =        -0.0006280708
  Scaling factor             =         0.3521206916
  Step size                  =         0.4724315332
  Trust radius               =         0.4724315332
  Decrease in energy         =                  YES
  Used time                  =                0.009

  Convergence check :
  Max. step size             =         0.4724315332
  Conv. limit for step size  =         0.0010000000
  Convergence in step size   =                   NO
  RMS step size              =         0.0870425106
  Conv. limit for RMS step   =         0.0003000000
  Convergence in RMS step    =                   NO
  Max. gradient              =         0.0009981566
  Conv. limit for gradients  =         0.0001000000
  Conv. for gradients        =                   NO
  RMS gradient               =         0.0002332980
  Conv. limit for RMS grad.  =         0.0000300000
  Conv. for gradients        =                   NO
 ---------------------------------------------------

 --------------------------
 OPTIMIZATION STEP:     16
 --------------------------

 ENERGY| Total FORCE_EVAL ( FIST ) energy [a.u.]:             -0.033215378420784

 --------  Informations at step =    16 ------------
  Optimization Method        =                 BFGS
  Total Energy               =        -0.0332153784
  Real energy change         =        -0.0001531158
  Predicted change in energy =        -0.0001759473
  Scaling factor             =         0.3521206916
  Step size                  =         0.1713671400
  Trust radius               =         0.4724315332
  Decrease in energy         =                  YES
  Used time                  =                0.009

  Convergence check :
  Max. step size             =         0.1713671400
  Conv. limit for step size  =         0.0010000000
  Convergence in step size   =                   NO
  RMS step size              =         0.0599123859
  Conv. limit for RMS step   =         0.0003000000
  Convergence in RMS step    =                   NO
  Max. gradient              =         0.0009023125
  Conv. limit for gradients  =         0.0001000000
  Conv. for gradients        =                   NO
  RMS gradient               =         0.0002427477
  Conv. limit for RMS grad.  =         0.0000300000
  Conv. for gradients        =                   NO
 ---------------------------------------------------

 --------------------------
 OPTIMIZATION STEP:     17
 --------------------------

 ENERGY| Total FORCE_EVAL ( FIST ) energy [a.u.]:             -0.033314715010131

 --------  Informations at step =    17 ------------
  Optimization Method        =                 BFGS
  Total Energy               =        -0.0333147150
  Real energy change         =        -0.0000993366
  Predicted change in energy =        -0.0000534046
  Scaling factor             =         0.3521206916
  Step size                  =         0.0498650360
  Trust radius               =         0.4724315332
  Decrease in energy         =                  YES
  Used time                  =                0.009

  Convergence check :
  Max. step size             =         0.0498650360
  Conv. limit for step size  =         0.0010000000
  Convergence in step size   =                   NO
  RMS step size              =         0.0114021351
  Conv. limit for RMS step   =         0.0003000000
  Convergence in RMS step    =                   NO
  Max. gradient              =         0.0008815320
  Conv. limit for gradients  =         0.0001000000
  Conv. for gradients        =                   NO
  RMS gradient               =         0.0002452128
  Conv. limit for RMS grad.  =         0.0000300000
  Conv. for gradients        =                   NO
 ---------------------------------------------------

 --------------------------
 OPTIMIZATION STEP:     18
 --------------------------

 ENERGY| Total FORCE_EVAL ( FIST ) energy [a.u.]:             -0.034119084804837

 --------  Informations at step =    18 ------------
  Optimization Method        =                 BFGS
  Total Energy               =        -0.0341190848
  Real energy change         =        -0.0008043698
  Predicted change in energy =        -0.0006082064
  Scaling factor             =         0.3521206916
  Step size                  =         0.2699838281
  Trust radius               =         0.4724315332
  Decrease in energy         =                  YES
  Used time                  =                0.009

  Convergence check :
  Max. step size             =         0.2699838281
  Conv. limit for step size  =         0.0010000000
  Convergence in step size   =                   NO
  RMS step size              =         0.0838276974
  Conv. limit for RMS step   =         0.0003000000
  Convergence in RMS step    =                   NO
  Max. gradient              =         0.0018650420
  Conv. limit for gradients  =         0.0001000000
  Conv. for gradients        =                   NO
  RMS gradient               =         0.0003412080
  Conv. limit for RMS grad.  =         0.0000300000
  Conv. for gradients        =                   NO
 ---------------------------------------------------

 --------------------------
 OPTIMIZATION STEP:     19
 --------------------------

 ENERGY| Total FORCE_EVAL ( FIST ) energy [a.u.]:             -0.035430664546646

 --------  Informations at step =    19 ------------
  Optimization Method        =                 BFGS
  Total Energy               =        -0.0354306645
  Real energy change         =        -0.0013115797
  Predicted change in energy =        -0.0007353129
  Scaling factor             =         0.3521206916
  Step size                  =         0.2134593953
  Trust radius               =         0.4724315332
  Decrease in energy         =                  YES
  Used time                  =                0.009

  Convergence check :
  Max. step size             =         0.2134593953
  Conv. limit for step size  =         0.0010000000
  Convergence in step size   =                   NO
  RMS step size              =         0.0909210096
  Conv. limit for RMS step   =         0.0003000000
  Convergence in RMS step    =                   NO
  Max. gradient              =         0.0017040693
  Conv. limit for gradients  =         0.0001000000
  Conv. for gradients        =                   NO
  RMS gradient               =         0.0003258379
  Conv. limit for RMS grad.  =         0.0000300000
  Conv. for gradients        =                   NO
 ---------------------------------------------------

 --------------------------
 OPTIMIZATION STEP:     20
 --------------------------

  Step is scaled; Scaling factor =  0.59117

 ENERGY| Total FORCE_EVAL ( FIST ) energy [a.u.]:             -0.037447285187574

 --------  Informations at step =    20 ------------
  Optimization Method        =                 BFGS
  Total Energy               =        -0.0374472852
  Real energy change         =        -0.0020166206
  Predicted change in energy =        -0.0020676916
  Scaling factor             =         0.5911687323
  Step size                  =         0.4724315332
  Trust radius               =         0.4724315332
  Decrease in energy         =                  YES
  Used time                  =                0.009

  Convergence check :
  Max. step size             =         0.4724315332
  Conv. limit for step size  =         0.0010000000
  Convergence in step size   =                   NO
  RMS step size              =         0.1994654784
  Conv. limit for RMS step   =         0.0003000000
  Convergence in RMS step    =                   NO
  Max. gradient              =         0.0014977150
  Conv. limit for gradients  =         0.0001000000
  Conv. for gradients        =                   NO
  RMS gradient               =         0.0003347721
  Conv. limit for RMS grad.  =         0.0000300000
  Conv. for gradients        =                   NO
 ---------------------------------------------------

 --------------------------
 OPTIMIZATION STEP:     21
 --------------------------

 ENERGY| Total FORCE_EVAL ( FIST ) energy [a.u.]:             -0.038356360137175

 --------  Informations at step =    21 ------------
  Optimization Method        =                 BFGS
  Total Energy               =        -0.0383563601
  Real energy change         =        -0.0009090749
  Predicted change in energy =        -0.0008161775
  Scaling factor             =         0.5911687323
  Step size                  =         0.4272121988
  Trust radius               =         0.4724315332
  Decrease in energy         =                  YES
  Used time                  =                0.009

  Convergence check :
  Max. step size             =         0.4272121988
  Conv. limit for step size  =         0.0010000000
  Convergence in step size   =                   NO
  RMS step size              =         0.1164275595
  Conv. limit for RMS step   =         0.0003000000
  Convergence in RMS step    =                   NO
  Max. gradient              =         0.0015283695
  Conv. limit for gradients  =         0.0001000000
  Conv. for gradients        =                   NO
  RMS gradient               =         0.0003379476
  Conv. limit for RMS grad.  =         0.0000300000
  Conv. for gradients        =                   NO
 ---------------------------------------------------

 --------------------------
 OPTIMIZATION STEP:     22
 --------------------------

 ENERGY| Total FORCE_EVAL ( FIST ) energy [a.u.]:             -0.038590355257664

 --------  Informations at step =    22 ------------
  Optimization Method        =                 BFGS
  Total Energy               =        -0.0385903553
  Real energy change         =        -0.0002339951
  Predicted change in energy =        -0.0001375065
  Scaling factor             =         0.5911687323
  Step size                  =         0.1000562289
  Trust radius               =         0.4724315332
  Decrease in energy         =                  YES
  Used time                  =                0.009

  Convergence check :
  Max. step size             =         0.1000562289
  Conv. limit for step size  =         0.0010000000
  Convergence in step size   =                   NO
  RMS step size              =         0.0361099884
  Conv. limit for RMS step   =         0.0003000000
  Convergence in RMS step    =                   NO
  Max. gradient              =         0.0015665340
  Conv. limit for gradients  =         0.0001000000
  Conv. for gradients        =                   NO
  RMS gradient               =         0.0003544293
  Conv. limit for RMS grad.  =         0.0000300000
  Conv. for gradients        =                   NO
 ---------------------------------------------------

 --------------------------
 OPTIMIZATION STEP:     23
 --------------------------

 ENERGY| Total FORCE_EVAL ( FIST ) energy [a.u.]:             -0.039284372548652

 --------  Informations at step =    23 ------------
  Optimization Method        =                 BFGS
  Total Energy               =        -0.0392843725
  Real energy change         =        -0.0006940173
  Predicted change in energy =        -0.0005523607
  Scaling factor             =         0.5911687323
  Step size                  =         0.4226309995
  Trust radius               =         0.4724315332
  Decrease in energy         =                  YES
  Used time                  =                0.009

  Convergence check :
  Max. step size             =         0.4226309995
  Conv. limit for step size  =         0.0010000000
  Convergence in step size   =                   NO
  RMS step size              =         0.0892964240
  Conv. limit for RMS step   =         0.0003000000
  Convergence in RMS step    =                   NO
  Max. gradient              =         0.0010770671
  Conv. limit for gradients  =         0.0001000000
  Conv. for gradients        =                   NO
  RMS gradient               =         0.0002892604
  Conv. limit for RMS grad.  =         0.0000300000
  Conv. for gradients        =                   NO
 ---------------------------------------------------

 --------------------------
 OPTIMIZATION STEP:     24
 --------------------------

 ENERGY| Total FORCE_EVAL ( FIST ) energy [a.u.]:             -0.039677173094375

 --------  Informations at step =    24 ------------
  Optimization Method        =                 BFGS
  Total Energy               =        -0.0396771731
  Real energy change         =        -0.0003928005
  Predicted change in energy =        -0.0002876252
  Scaling factor             =         0.5911687323
  Step size                  =         0.1650844047
  Trust radius               =         0.4724315332
  Decrease in energy         =                  YES
  Used time                  =                0.009

  Convergence check :
  Max. step size             =         0.1650844047
  Conv. limit for step size  =         0.0010000000
  Convergence in step size   =                   NO
  RMS step size              =         0.0658665000
  Conv. limit for RMS step   =         0.0003000000
  Convergence in RMS step    =                   NO
  Max. gradient              =         0.0008823156
  Conv. limit for gradients  =         0.0001000000
  Conv. for gradients        =                   NO
  RMS gradient               =         0.0002741695
  Conv. limit for RMS grad.  =         0.0000300000
  Conv. for gradients        =                   NO
 ---------------------------------------------------

 --------------------------
 OPTIMIZATION STEP:     25
 --------------------------

 ENERGY| Total FORCE_EVAL ( FIST ) energy [a.u.]:             -0.039979879974726

 --------  Informations at step =    25 ------------
  Optimization Method        =                 BFGS
  Total Energy               =        -0.0399798800
  Real energy change         =        -0.0003027069
  Predicted change in energy =        -0.0002235393
  Scaling factor             =         0.5911687323
  Step size                  =         0.1629631883
  Trust radius               =         0.4724315332
  Decrease in energy         =                  YES
  Used time                  =                0.009

  Convergence check :
  Max. step size             =         0.1629631883
  Conv. limit for step size  =         0.0010000000
  Convergence in step size   =                   NO
  RMS step size              =         0.0409182923
  Conv. limit for RMS step   =         0.0003000000
  Convergence in RMS step    =                   NO
  Max. gradient              =         0.0007824098
  Conv. limit for gradients  =         0.0001000000
  Conv. for gradients        =                   NO
  RMS gradient               =         0.0002304256
  Conv. limit for RMS grad.  =         0.0000300000
  Conv. for gradients        =                   NO
 ---------------------------------------------------

 --------------------------
 OPTIMIZATION STEP:     26
 --------------------------

 ENERGY| Total FORCE_EVAL ( FIST ) energy [a.u.]:             -0.040243992651120

 --------  Informations at step =    26 ------------
  Optimization Method        =                 BFGS
  Total Energy               =        -0.0402439927
  Real energy change         =        -0.0002641127
  Predicted change in energy =        -0.0001596121
  Scaling factor             =         0.5911687323
  Step size                  =         0.0848781833
  Trust radius               =         0.4724315332
  Decrease in energy         =                  YES
  Used time                  =                0.009

  Convergence check :
  Max. step size             =         0.0848781833
  Conv. limit for step size  =         0.0010000000
  Convergence in step size   =                   NO
  RMS step size              =         0.0275171847
  Conv. limit for RMS step   =         0.0003000000
  Convergence in RMS step    =                   NO
  Max. gradient              =         0.0008995321
  Conv. limit for gradients  =         0.0001000000
  Conv. for gradients        =                   NO
  RMS gradient               =         0.0002231008
  Conv. limit for RMS grad.  =         0.0000300000
  Conv. for gradients        =                   NO
 ---------------------------------------------------

 --------------------------
 OPTIMIZATION STEP:     27
 --------------------------

 ENERGY| Total FORCE_EVAL ( FIST ) energy [a.u.]:             -0.040897576463941

 --------  Informations at step =    27 ------------
  Optimization Method        =                 BFGS
  Total Energy               =        -0.0408975765
  Real energy change         =        -0.0006535838
  Predicted change in energy =        -0.0004347931
  Scaling factor             =         0.5911687323
  Step size                  =         0.1973308938
  Trust radius               =         0.4724315332
  Decrease in energy         =                  YES
  Used time                  =                0.009

  Convergence check :
  Max. step size             =         0.1973308938
  Conv. limit for step size  =         0.0010000000
  Convergence in step size   =                   NO
  RMS step size              =         0.0535066940
  Conv. limit for RMS step   =         0.0003000000
  Convergence in RMS step    =                   NO
  Max. gradient              =         0.0009554084
  Conv. limit for gradients  =         0.0001000000
  Conv. for gradients        =                   NO
  RMS gradient               =         0.0002224012
  Conv. limit for RMS grad.  =         0.0000300000
  Conv. for gradients        =                   NO
 ---------------------------------------------------

 --------------------------
 OPTIMIZATION STEP:     28
 --------------------------

 ENERGY| Total FORCE_EVAL ( FIST ) energy [a.u.]:             -0.041585219302072

 --------  Informations at step =    28 ------------
  Optimization Method        =                 BFGS
  Total Energy               =        -0.0415852193
  Real energy change         =        -0.0006876428
  Predicted change in energy =        -0.0004963712
  Scaling factor             =         0.5911687323
  Step size                  =         0.2608902137
  Trust radius               =         0.4724315332
  Decrease in energy         =                  YES
  Used time                  =                0.008

  Convergence check :
  Max. step size             =         0.2608902137
  Conv. limit for step size  =         0.0010000000
  Convergence in step size   =                   NO
  RMS step size              =         0.0792182357
  Conv. limit for RMS step   =         0.0003000000
  Convergence in RMS step    =                   NO
  Max. gradient              =         0.0008797078
  Conv. limit for gradients  =         0.0001000000
  Conv. for gradients        =                   NO
  RMS gradient               =         0.0002491297
  Conv. limit for RMS grad.  =         0.0000300000
  Conv. for gradients        =                   NO
 ---------------------------------------------------

 --------------------------
 OPTIMIZATION STEP:     29
 --------------------------

 ENERGY| Total FORCE_EVAL ( FIST ) energy [a.u.]:             -0.041897823684583

 --------  Informations at step =    29 ------------
  Optimization Method        =                 BFGS
  Total Energy               =        -0.0418978237
  Real energy change         =        -0.0003126044
  Predicted change in energy =        -0.0002721545
  Scaling factor             =         0.5911687323
  Step size                  =         0.3026184160
  Trust radius               =         0.4724315332
  Decrease in energy         =                  YES
  Used time                  =                0.009

  Convergence check :
  Max. step size             =         0.3026184160
  Conv. limit for step size  =         0.0010000000
  Convergence in step size   =                   NO
  RMS step size              =         0.0672717232
  Conv. limit for RMS step   =         0.0003000000
  Convergence in RMS step    =                   NO
  Max. gradient              =         0.0010630508
  Conv. limit for gradients  =         0.0001000000
  Conv. for gradients        =                   NO
  RMS gradient               =         0.0002616128
  Conv. limit for RMS grad.  =         0.0000300000
  Conv. for gradients        =                   NO
 ---------------------------------------------------

 --------------------------
 OPTIMIZATION STEP:     30
 --------------------------

 ENERGY| Total FORCE_EVAL ( FIST ) energy [a.u.]:             -0.042003852264806

 --------  Informations at step =    30 ------------
  Optimization Method        =                 BFGS
  Total Energy               =        -0.0420038523
  Real energy change         =        -0.0001060286
  Predicted change in energy =        -0.0000610784
  Scaling factor             =         0.5911687323
  Step size                  =         0.0830376977
  Trust radius               =         0.4724315332
  Decrease in energy         =                  YES
  Used time                  =                0.009

  Convergence check :
  Max. step size             =         0.0830376977
  Conv. limit for step size  =         0.0010000000
  Convergence in step size   =                   NO
  RMS step size              =         0.0151897912
  Conv. limit for RMS step   =         0.0003000000
  Convergence in RMS step    =                   NO
  Max. gradient              =         0.0009745210
  Conv. limit for gradients  =         0.0001000000
  Conv. for gradients        =                   NO
  RMS gradient               =         0.0002517258
  Conv. limit for RMS grad.  =         0.0000300000
  Conv. for gradients        =                   NO
 ---------------------------------------------------

 --------------------------
 OPTIMIZATION STEP:     31
 --------------------------

 ENERGY| Total FORCE_EVAL ( FIST ) energy [a.u.]:             -0.042358321453999

 --------  Informations at step =    31 ------------
  Optimization Method        =                 BFGS
  Total Energy               =        -0.0423583215
  Real energy change         =        -0.0003544692
  Predicted change in energy =        -0.0002705134
  Scaling factor             =         0.5911687323
  Step size                  =         0.2042010040
  Trust radius               =         0.4724315332
  Decrease in energy         =                  YES
  Used time                  =                0.009

  Convergence check :
  Max. step size             =         0.2042010040
  Conv. limit for step size  =         0.0010000000
  Convergence in step size   =                   NO
  RMS step size              =         0.0523220920
  Conv. limit for RMS step   =         0.0003000000
  Convergence in RMS step    =                   NO
  Max. gradient              =         0.0007277149
  Conv. limit for gradients  =         0.0001000000
  Conv. for gradients        =                   NO
  RMS gradient               =         0.0002306342
  Conv. limit for RMS grad.  =         0.0000300000
  Conv. for gradients        =                   NO
 ---------------------------------------------------

 --------------------------
 OPTIMIZATION STEP:     32
 --------------------------

 ENERGY| Total FORCE_EVAL ( FIST ) energy [a.u.]:             -0.042690189493919

 --------  Informations at step =    32 ------------
  Optimization Method        =                 BFGS
  Total Energy               =        -0.0426901895
  Real energy change         =        -0.0003318680
  Predicted change in energy =        -0.0001975736
  Scaling factor             =         0.5911687323
  Step size                  =         0.0722875675
  Trust radius               =         0.4724315332
  Decrease in energy         =                  YES
  Used time                  =                0.009

  Convergence check :
  Max. step size             =         0.0722875675
  Conv. limit for step size  =         0.0010000000
  Convergence in step size   =                   NO
  RMS step size              =         0.0246374467
  Conv. limit for RMS step   =         0.0003000000
  Convergence in RMS step    =                   NO
  Max. gradient              =         0.0006235350
  Conv. limit for gradients  =         0.0001000000
  Conv. for gradients        =                   NO
  RMS gradient               =         0.0002071590
  Conv. limit for RMS grad.  =         0.0000300000
  Conv. for gradients        =                   NO
 ---------------------------------------------------

 --------------------------
 OPTIMIZATION STEP:     33
 --------------------------

 ENERGY| Total FORCE_EVAL ( FIST ) energy [a.u.]:             -0.043825760690062

 --------  Informations at step =    33 ------------
  Optimization Method        =                 BFGS
  Total Energy               =        -0.0438257607
  Real energy change         =        -0.0011355712
  Predicted change in energy =        -0.0007742271
  Scaling factor             =         0.5911687323
  Step size                  =         0.2430215296
  Trust radius               =         0.4724315332
  Decrease in energy         =                  YES
  Used time                  =                0.008

  Convergence check :
  Max. step size             =         0.2430215296
  Conv. limit for step size  =         0.0010000000
  Convergence in step size   =                   NO
  RMS step size              =         0.1039687615
  Conv. limit for RMS step   =         0.0003000000
  Convergence in RMS step    =                   NO
  Max. gradient              =         0.0007696721
  Conv. limit for gradients  =         0.0001000000
  Conv. for gradients        =                   NO
  RMS gradient               =         0.0002568453
  Conv. limit for RMS grad.  =         0.0000300000
  Conv. for gradients        =                   NO
 ---------------------------------------------------

 --------------------------
 OPTIMIZATION STEP:     34
 --------------------------

 ENERGY| Total FORCE_EVAL ( FIST ) energy [a.u.]:             -0.044968075176089

 --------  Informations at step =    34 ------------
  Optimization Method        =                 BFGS
  Total Energy               =        -0.0449680752
  Real energy change         =        -0.0011423145
  Predicted change in energy =        -0.0009063176
  Scaling factor             =         0.5911687323
  Step size                  =         0.3057104231
  Trust radius               =         0.4724315332
  Decrease in energy         =                  YES
  Used time                  =                0.009

  Convergence check :
  Max. step size             =         0.3057104231
  Conv. limit for step size  =         0.0010000000
  Convergence in step size   =                   NO
  RMS step size              =         0.1279614908
  Conv. limit for RMS step   =         0.0003000000
  Convergence in RMS step    =                   NO
  Max. gradient              =         0.0009573136
  Conv. limit for gradients  =         0.0001000000
  Conv. for gradients        =                   NO
  RMS gradient               =         0.0003352312
  Conv. limit for RMS grad.  =         0.0000300000
  Conv. for gradients        =                   NO
 ---------------------------------------------------

 --------------------------
 OPTIMIZATION STEP:     35
 --------------------------

 ENERGY| Total FORCE_EVAL ( FIST ) energy [a.u.]:             -0.045341183640199

 --------  Informations at step =    35 ------------
  Optimization Method        =                 BFGS
  Total Energy               =        -0.0453411836
  Real energy change         =        -0.0003731085
  Predicted change in energy =        -0.0002809953
  Scaling factor             =         0.5911687323
  Step size                  =         0.2258093350
  Trust radius               =         0.4724315332
  Decrease in energy         =                  YES
  Used time                  =                0.009

  Convergence check :
  Max. step size             =         0.2258093350
  Conv. limit for step size  =         0.0010000000
  Convergence in step size   =                   NO
  RMS step size              =         0.0580336414
  Conv. limit for RMS step   =         0.0003000000
  Convergence in RMS step    =                   NO
  Max. gradient              =         0.0009653199
  Conv. limit for gradients  =         0.0001000000
  Conv. for gradients        =                   NO
  RMS gradient               =         0.0003266403
  Conv. limit for RMS grad.  =         0.0000300000
  Conv. for gradients        =                   NO
 ---------------------------------------------------

 --------------------------
 OPTIMIZATION STEP:     36
 --------------------------

 ENERGY| Total FORCE_EVAL ( FIST ) energy [a.u.]:             -0.045574282966947

 --------  Informations at step =    36 ------------
  Optimization Method        =                 BFGS
  Total Energy               =        -0.0455742830
  Real energy change         =        -0.0002330993
  Predicted change in energy =        -0.0001526858
  Scaling factor             =         0.5911687323
  Step size                  =         0.1010018379
  Trust radius               =         0.4724315332
  Decrease in energy         =                  YES
  Used time                  =                0.009

  Convergence check :
  Max. step size             =         0.1010018379
  Conv. limit for step size  =         0.0010000000
  Convergence in step size   =                   NO
  RMS step size              =         0.0397804231
  Conv. limit for RMS step   =         0.0003000000
  Convergence in RMS step    =                   NO
  Max. gradient              =         0.0009539712
  Conv. limit for gradients  =         0.0001000000
  Conv. for gradients        =                   NO
  RMS gradient               =         0.0003296347
  Conv. limit for RMS grad.  =         0.0000300000
  Conv. for gradients        =                   NO
 ---------------------------------------------------

 --------------------------
 OPTIMIZATION STEP:     37
 --------------------------

 ENERGY| Total FORCE_EVAL ( FIST ) energy [a.u.]:             -0.045938514661715

 --------  Informations at step =    37 ------------
  Optimization Method        =                 BFGS
  Total Energy               =        -0.0459385147
  Real energy change         =        -0.0003642317
  Predicted change in energy =        -0.0002533420
  Scaling factor             =         0.5911687323
  Step size                  =         0.1248828370
  Trust radius               =         0.4724315332
  Decrease in energy         =                  YES
  Used time                  =                0.009

  Convergence check :
  Max. step size             =         0.1248828370
  Conv. limit for step size  =         0.0010000000
  Convergence in step size   =                   NO
  RMS step size              =         0.0423722157
  Conv. limit for RMS step   =         0.0003000000
  Convergence in RMS step    =                   NO
  Max. gradient              =         0.0008925770
  Conv. limit for gradients  =         0.0001000000
  Conv. for gradients        =                   NO
  RMS gradient               =         0.0002892514
  Conv. limit for RMS grad.  =         0.0000300000
  Conv. for gradients        =                   NO
 ---------------------------------------------------

 --------------------------
 OPTIMIZATION STEP:     38
 --------------------------

 ENERGY| Total FORCE_EVAL ( FIST ) energy [a.u.]:             -0.046376969533628

 --------  Informations at step =    38 ------------
  Optimization Method        =                 BFGS
  Total Energy               =        -0.0463769695
  Real energy change         =        -0.0004384549
  Predicted change in energy =        -0.0002910625
  Scaling factor             =         0.5911687323
  Step size                  =         0.1234572918
  Trust radius               =         0.4724315332
  Decrease in energy         =                  YES
  Used time                  =                0.009

  Convergence check :
  Max. step size             =         0.1234572918
  Conv. limit for step size  =         0.0010000000
  Convergence in step size   =                   NO
  RMS step size              =         0.0580826855
  Conv. limit for RMS step   =         0.0003000000
  Convergence in RMS step    =                   NO
  Max. gradient              =         0.0011143559
  Conv. limit for gradients  =         0.0001000000
  Conv. for gradients        =                   NO
  RMS gradient               =         0.0002882261
  Conv. limit for RMS grad.  =         0.0000300000
  Conv. for gradients        =                   NO
 ---------------------------------------------------

 --------------------------
 OPTIMIZATION STEP:     39
 --------------------------

 ENERGY| Total FORCE_EVAL ( FIST ) energy [a.u.]:             -0.047122374333525

 --------  Informations at step =    39 ------------
  Optimization Method        =                 BFGS
  Total Energy               =        -0.0471223743
  Real energy change         =        -0.0007454048
  Predicted change in energy =        -0.0005113245
  Scaling factor             =         0.5911687323
  Step size                  =         0.1462830675
  Trust radius               =         0.4724315332
  Decrease in energy         =                  YES
  Used time                  =                0.009

  Convergence check :
  Max. step size             =         0.1462830675
  Conv. limit for step size  =         0.0010000000
  Convergence in step size   =                   NO
  RMS step size              =         0.0623111775
  Conv. limit for RMS step   =         0.0003000000
  Convergence in RMS step    =                   NO
  Max. gradient              =         0.0010829230
  Conv. limit for gradients  =         0.0001000000
  Conv. for gradients        =                   NO
  RMS gradient               =         0.0002618762
  Conv. limit for RMS grad.  =         0.0000300000
  Conv. for gradients        =                   NO
 ---------------------------------------------------

 --------------------------
 OPTIMIZATION STEP:     40
 --------------------------

 ENERGY| Total FORCE_EVAL ( FIST ) energy [a.u.]:             -0.047906285089351

 --------  Informations at step =    40 ------------
  Optimization Method        =                 BFGS
  Total Energy               =        -0.0479062851
  Real energy change         =        -0.0007839108
  Predicted change in energy =        -0.0005502390
  Scaling factor             =         0.5911687323
  Step size                  =         0.2088495823
  Trust radius               =         0.4724315332
  Decrease in energy         =                  YES
  Used time                  =                0.009

  Convergence check :
  Max. step size             =         0.2088495823
  Conv. limit for step size  =         0.0010000000
  Convergence in step size   =                   NO
  RMS step size              =         0.0730824497
  Conv. limit for RMS step   =         0.0003000000
  Convergence in RMS step    =                   NO
  Max. gradient              =         0.0008062298
  Conv. limit for gradients  =         0.0001000000
  Conv. for gradients        =                   NO
  RMS gradient               =         0.0002593488
  Conv. limit for RMS grad.  =         0.0000300000
  Conv. for gradients        =                   NO
 ---------------------------------------------------

 --------------------------
 OPTIMIZATION STEP:     41
 --------------------------

 ENERGY| Total FORCE_EVAL ( FIST ) energy [a.u.]:             -0.048460426473015

 --------  Informations at step =    41 ------------
  Optimization Method        =                 BFGS
  Total Energy               =        -0.0484604265
  Real energy change         =        -0.0005541414
  Predicted change in energy =        -0.0004592797
  Scaling factor             =         0.5911687323
  Step size                  =         0.3139114749
  Trust radius               =         0.4724315332
  Decrease in energy         =                  YES
  Used time                  =                0.009

  Convergence check :
  Max. step size             =         0.3139114749
  Conv. limit for step size  =         0.0010000000
  Convergence in step size   =                   NO
  RMS step size              =         0.0678114917
  Conv. limit for RMS step   =         0.0003000000
  Convergence in RMS step    =                   NO
  Max. gradient              =         0.0007152883
  Conv. limit for gradients  =         0.0001000000
  Conv. for gradients        =                   NO
  RMS gradient               =         0.0002413384
  Conv. limit for RMS grad.  =         0.0000300000
  Conv. for gradients        =                   NO
 ---------------------------------------------------

 --------------------------
 OPTIMIZATION STEP:     42
 --------------------------

 ENERGY| Total FORCE_EVAL ( FIST ) energy [a.u.]:             -0.048582086812242

 --------  Informations at step =    42 ------------
  Optimization Method        =                 BFGS
  Total Energy               =        -0.0485820868
  Real energy change         =        -0.0001216603
  Predicted change in energy =        -0.0001054483
  Scaling factor             =         0.5911687323
  Step size                  =         0.1051787527
  Trust radius               =         0.4724315332
  Decrease in energy         =                  YES
  Used time                  =                0.008

  Convergence check :
  Max. step size             =         0.1051787527
  Conv. limit for step size  =         0.0010000000
  Convergence in step size   =                   NO
  RMS step size              =         0.0292256010
  Conv. limit for RMS step   =         0.0003000000
  Convergence in RMS step    =                   NO
  Max. gradient              =         0.0006386297
  Conv. limit for gradients  =         0.0001000000
  Conv. for gradients        =                   NO
  RMS gradient               =         0.0002362756
  Conv. limit for RMS grad.  =         0.0000300000
  Conv. for gradients        =                   NO
 ---------------------------------------------------

 --------------------------
 OPTIMIZATION STEP:     43
 --------------------------

 ENERGY| Total FORCE_EVAL ( FIST ) energy [a.u.]:             -0.048680903174249

 --------  Informations at step =    43 ------------
  Optimization Method        =                 BFGS
  Total Energy               =        -0.0486809032
  Real energy change         =        -0.0000988164
  Predicted change in energy =        -0.0000607454
  Scaling factor             =         0.5911687323
  Step size                  =         0.0578737616
  Trust radius               =         0.4724315332
  Decrease in energy         =                  YES
  Used time                  =                0.009

  Convergence check :
  Max. step size             =         0.0578737616
  Conv. limit for step size  =         0.0010000000
  Convergence in step size   =                   NO
  RMS step size              =         0.0123219678
  Conv. limit for RMS step   =         0.0003000000
  Convergence in RMS step    =                   NO
  Max. gradient              =         0.0005845140
  Conv. limit for gradients  =         0.0001000000
  Conv. for gradients        =                   NO
  RMS gradient               =         0.0002154174
  Conv. limit for RMS grad.  =         0.0000300000
  Conv. for gradients        =                   NO
 ---------------------------------------------------

 --------------------------
 OPTIMIZATION STEP:     44
 --------------------------

 ENERGY| Total FORCE_EVAL ( FIST ) energy [a.u.]:             -0.049014513242701

 --------  Informations at step =    44 ------------
  Optimization Method        =                 BFGS
  Total Energy               =        -0.0490145132
  Real energy change         =        -0.0003336101
  Predicted change in energy =        -0.0002149542
  Scaling factor             =         0.5911687323
  Step size                  =         0.1164450917
  Trust radius               =         0.4724315332
  Decrease in energy         =                  YES
  Used time                  =                0.009

  Convergence check :
  Max. step size             =         0.1164450917
  Conv. limit for step size  =         0.0010000000
  Convergence in step size   =                   NO
  RMS step size              =         0.0267922244
  Conv. limit for RMS step   =         0.0003000000
  Convergence in RMS step    =                   NO
  Max. gradient              =         0.0006319006
  Conv. limit for gradients  =         0.0001000000
  Conv. for gradients        =                   NO
  RMS gradient               =         0.0001901564
  Conv. limit for RMS grad.  =         0.0000300000
  Conv. for gradients        =                   NO
 ---------------------------------------------------

 --------------------------
 OPTIMIZATION STEP:     45
 --------------------------

 ENERGY| Total FORCE_EVAL ( FIST ) energy [a.u.]:             -0.049616773378789

 --------  Informations at step =    45 ------------
  Optimization Method        =                 BFGS
  Total Energy               =        -0.0496167734
  Real energy change         =        -0.0006022601
  Predicted change in energy =        -0.0003934312
  Scaling factor             =         0.5911687323
  Step size                  =         0.1420927768
  Trust radius               =         0.4724315332
  Decrease in energy         =                  YES
  Used time                  =                0.009

  Convergence check :
  Max. step size             =         0.1420927768
  Conv. limit for step size  =         0.0010000000
  Convergence in step size   =                   NO
  RMS step size              =         0.0511031626
  Conv. limit for RMS step   =         0.0003000000
  Convergence in RMS step    =                   NO
  Max. gradient              =         0.0005813485
  Conv. limit for gradients  =         0.0001000000
  Conv. for gradients        =                   NO
  RMS gradient               =         0.0001913604
  Conv. limit for RMS grad.  =         0.0000300000
  Conv. for gradients        =                   NO
 ---------------------------------------------------

 --------------------------
 OPTIMIZATION STEP:     46
 --------------------------

 ENERGY| Total FORCE_EVAL ( FIST ) energy [a.u.]:             -0.050420819912355

 --------  Informations at step =    46 ------------
  Optimization Method        =                 BFGS
  Total Energy               =        -0.0504208199
  Real energy change         =        -0.0008040465
  Predicted change in energy =        -0.0005849234
  Scaling factor             =         0.5911687323
  Step size                  =         0.2726795430
  Trust radius               =         0.4724315332
  Decrease in energy         =                  YES
  Used time                  =                0.009

  Convergence check :
  Max. step size             =         0.2726795430
  Conv. limit for step size  =         0.0010000000
  Convergence in step size   =                   NO
  RMS step size              =         0.0968329901
  Conv. limit for RMS step   =         0.0003000000
  Convergence in RMS step    =                   NO
  Max. gradient              =         0.0009347080
  Conv. limit for gradients  =         0.0001000000
  Conv. for gradients        =                   NO
  RMS gradient               =         0.0002433491
  Conv. limit for RMS grad.  =         0.0000300000
  Conv. for gradients        =                   NO
 ---------------------------------------------------

 --------------------------
 OPTIMIZATION STEP:     47
 --------------------------

 ENERGY| Total FORCE_EVAL ( FIST ) energy [a.u.]:             -0.050866193334127

 --------  Informations at step =    47 ------------
  Optimization Method        =                 BFGS
  Total Energy               =        -0.0508661933
  Real energy change         =        -0.0004453734
  Predicted change in energy =        -0.0003623051
  Scaling factor             =         0.5911687323
  Step size                  =         0.1759889999
  Trust radius               =         0.4724315332
[...]
  Step size                  =         0.0032841969
  Trust radius               =         0.4724315332
  Decrease in energy         =                  YES
  Used time                  =                0.009

  Convergence check :
  Max. step size             =         0.0032841969
  Conv. limit for step size  =         0.0010000000
  Convergence in step size   =                   NO
  RMS step size              =         0.0008493158
  Conv. limit for RMS step   =         0.0003000000
  Convergence in RMS step    =                   NO
  Max. gradient              =         0.0000130731
  Conv. limit for gradients  =         0.0001000000
  Conv. in gradients         =                  YES
  RMS gradient               =         0.0000048255
  Conv. limit for RMS grad.  =         0.0000300000
  Conv. in RMS gradients     =                  YES
 ---------------------------------------------------

 --------------------------
 OPTIMIZATION STEP:    178
 --------------------------

 ENERGY| Total FORCE_EVAL ( FIST ) energy [a.u.]:             -0.062102703415174

 --------  Informations at step =   178 ------------
  Optimization Method        =                 BFGS
  Total Energy               =        -0.0621027034
  Real energy change         =        -0.0000000466
  Predicted change in energy =        -0.0000000292
  Scaling factor             =         0.5911687323
  Step size                  =         0.0014629576
  Trust radius               =         0.4724315332
  Decrease in energy         =                  YES
  Used time                  =                0.009

  Convergence check :
  Max. step size             =         0.0014629576
  Conv. limit for step size  =         0.0010000000
  Convergence in step size   =                   NO
  RMS step size              =         0.0004606863
  Conv. limit for RMS step   =         0.0003000000
  Convergence in RMS step    =                   NO
  Max. gradient              =         0.0000121474
  Conv. limit for gradients  =         0.0001000000
  Conv. in gradients         =                  YES
  RMS gradient               =         0.0000046150
  Conv. limit for RMS grad.  =         0.0000300000
  Conv. in RMS gradients     =                  YES
 ---------------------------------------------------

 --------------------------
 OPTIMIZATION STEP:    179
 --------------------------

 ENERGY| Total FORCE_EVAL ( FIST ) energy [a.u.]:             -0.062102807354677

 --------  Informations at step =   179 ------------
  Optimization Method        =                 BFGS
  Total Energy               =        -0.0621028074
  Real energy change         =        -0.0000001039
  Predicted change in energy =        -0.0000000657
  Scaling factor             =         0.5911687323
  Step size                  =         0.0017184317
  Trust radius               =         0.4724315332
  Decrease in energy         =                  YES
  Used time                  =                0.009

  Convergence check :
  Max. step size             =         0.0017184317
  Conv. limit for step size  =         0.0010000000
  Convergence in step size   =                   NO
  RMS step size              =         0.0006498339
  Conv. limit for RMS step   =         0.0003000000
  Convergence in RMS step    =                   NO
  Max. gradient              =         0.0000118625
  Conv. limit for gradients  =         0.0001000000
  Conv. in gradients         =                  YES
  RMS gradient               =         0.0000043416
  Conv. limit for RMS grad.  =         0.0000300000
  Conv. in RMS gradients     =                  YES
 ---------------------------------------------------

 --------------------------
 OPTIMIZATION STEP:    180
 --------------------------

 ENERGY| Total FORCE_EVAL ( FIST ) energy [a.u.]:             -0.062103017062331

 --------  Informations at step =   180 ------------
  Optimization Method        =                 BFGS
  Total Energy               =        -0.0621030171
  Real energy change         =        -0.0000002097
  Predicted change in energy =        -0.0000001357
  Scaling factor             =         0.5911687323
  Step size                  =         0.0029383089
  Trust radius               =         0.4724315332
  Decrease in energy         =                  YES
  Used time                  =                0.009

  Convergence check :
  Max. step size             =         0.0029383089
  Conv. limit for step size  =         0.0010000000
  Convergence in step size   =                   NO
  RMS step size              =         0.0010713552
  Conv. limit for RMS step   =         0.0003000000
  Convergence in RMS step    =                   NO
  Max. gradient              =         0.0000104006
  Conv. limit for gradients  =         0.0001000000
  Conv. in gradients         =                  YES
  RMS gradient               =         0.0000041746
  Conv. limit for RMS grad.  =         0.0000300000
  Conv. in RMS gradients     =                  YES
 ---------------------------------------------------

 --------------------------
 OPTIMIZATION STEP:    181
 --------------------------

 ENERGY| Total FORCE_EVAL ( FIST ) energy [a.u.]:             -0.062103342522838

 --------  Informations at step =   181 ------------
  Optimization Method        =                 BFGS
  Total Energy               =        -0.0621033425
  Real energy change         =        -0.0000003255
  Predicted change in energy =        -0.0000002166
  Scaling factor             =         0.5911687323
  Step size                  =         0.0044613579
  Trust radius               =         0.4724315332
  Decrease in energy         =                  YES
  Used time                  =                0.009

  Convergence check :
  Max. step size             =         0.0044613579
  Conv. limit for step size  =         0.0010000000
  Convergence in step size   =                   NO
  RMS step size              =         0.0018022173
  Conv. limit for RMS step   =         0.0003000000
  Convergence in RMS step    =                   NO
  Max. gradient              =         0.0000129094
  Conv. limit for gradients  =         0.0001000000
  Conv. in gradients         =                  YES
  RMS gradient               =         0.0000043124
  Conv. limit for RMS grad.  =         0.0000300000
  Conv. in RMS gradients     =                  YES
 ---------------------------------------------------

 --------------------------
 OPTIMIZATION STEP:    182
 --------------------------

 ENERGY| Total FORCE_EVAL ( FIST ) energy [a.u.]:             -0.062103640548678

 --------  Informations at step =   182 ------------
  Optimization Method        =                 BFGS
  Total Energy               =        -0.0621036405
  Real energy change         =        -0.0000002980
  Predicted change in energy =        -0.0000002277
  Scaling factor             =         0.5911687323
  Step size                  =         0.0066691001
  Trust radius               =         0.4724315332
  Decrease in energy         =                  YES
  Used time                  =                0.009

  Convergence check :
  Max. step size             =         0.0066691001
  Conv. limit for step size  =         0.0010000000
  Convergence in step size   =                   NO
  RMS step size              =         0.0024268520
  Conv. limit for RMS step   =         0.0003000000
  Convergence in RMS step    =                   NO
  Max. gradient              =         0.0000128514
  Conv. limit for gradients  =         0.0001000000
  Conv. in gradients         =                  YES
  RMS gradient               =         0.0000043847
  Conv. limit for RMS grad.  =         0.0000300000
  Conv. in RMS gradients     =                  YES
 ---------------------------------------------------

 --------------------------
 OPTIMIZATION STEP:    183
 --------------------------

 ENERGY| Total FORCE_EVAL ( FIST ) energy [a.u.]:             -0.062103754774690

 --------  Informations at step =   183 ------------
  Optimization Method        =                 BFGS
  Total Energy               =        -0.0621037548
  Real energy change         =        -0.0000001142
  Predicted change in energy =        -0.0000000861
  Scaling factor             =         0.5911687323
  Step size                  =         0.0037158076
  Trust radius               =         0.4724315332
  Decrease in energy         =                  YES
  Used time                  =                0.008

  Convergence check :
  Max. step size             =         0.0037158076
  Conv. limit for step size  =         0.0010000000
  Convergence in step size   =                   NO
  RMS step size              =         0.0012194009
  Conv. limit for RMS step   =         0.0003000000
  Convergence in RMS step    =                   NO
  Max. gradient              =         0.0000113948
  Conv. limit for gradients  =         0.0001000000
  Conv. in gradients         =                  YES
  RMS gradient               =         0.0000040287
  Conv. limit for RMS grad.  =         0.0000300000
  Conv. in RMS gradients     =                  YES
 ---------------------------------------------------

 --------------------------
 OPTIMIZATION STEP:    184
 --------------------------

 ENERGY| Total FORCE_EVAL ( FIST ) energy [a.u.]:             -0.062103794547432

 --------  Informations at step =   184 ------------
  Optimization Method        =                 BFGS
  Total Energy               =        -0.0621037945
  Real energy change         =        -0.0000000398
  Predicted change in energy =        -0.0000000320
  Scaling factor             =         0.5911687323
  Step size                  =         0.0023039652
  Trust radius               =         0.4724315332
  Decrease in energy         =                  YES
  Used time                  =                0.008

  Convergence check :
  Max. step size             =         0.0023039652
  Conv. limit for step size  =         0.0010000000
  Convergence in step size   =                   NO
  RMS step size              =         0.0007203079
  Conv. limit for RMS step   =         0.0003000000
  Convergence in RMS step    =                   NO
  Max. gradient              =         0.0000099141
  Conv. limit for gradients  =         0.0001000000
  Conv. in gradients         =                  YES
  RMS gradient               =         0.0000037908
  Conv. limit for RMS grad.  =         0.0000300000
  Conv. in RMS gradients     =                  YES
 ---------------------------------------------------

 --------------------------
 OPTIMIZATION STEP:    185
 --------------------------

 ENERGY| Total FORCE_EVAL ( FIST ) energy [a.u.]:             -0.062103821975539

 --------  Informations at step =   185 ------------
  Optimization Method        =                 BFGS
  Total Energy               =        -0.0621038220
  Real energy change         =        -0.0000000274
  Predicted change in energy =        -0.0000000159
  Scaling factor             =         0.5911687323
  Step size                  =         0.0005101642
  Trust radius               =         0.4724315332
  Decrease in energy         =                  YES
  Used time                  =                0.008

  Convergence check :
  Max. step size             =         0.0005101642
  Conv. limit for step size  =         0.0010000000
  Convergence in step size   =                  YES
  RMS step size              =         0.0001954228
  Conv. limit for RMS step   =         0.0003000000
  Convergence in RMS step    =                  YES
  Max. gradient              =         0.0000088250
  Conv. limit for gradients  =         0.0001000000
  Conv. in gradients         =                  YES
  RMS gradient               =         0.0000036093
  Conv. limit for RMS grad.  =         0.0000300000
  Conv. in RMS gradients     =                  YES
 ---------------------------------------------------

 *******************************************************************************
 ***                    GEOMETRY OPTIMIZATION COMPLETED                      ***
 *******************************************************************************

                    Reevaluating energy at the minimum

 ENERGY| Total FORCE_EVAL ( FIST ) energy [a.u.]:             -0.062103821975539

 -------------------------------------------------------------------------------
 -                                                                             -
 -                                DBCSR STATISTICS                             -
 -                                                                             -
 -------------------------------------------------------------------------------
 COUNTER                                    TOTAL       BLAS       SMM       ACC
 flops inhomo. stacks                           0       0.0%      0.0%      0.0%
 flops total                         0.000000E+00       0.0%      0.0%      0.0%
 flops max/rank                      0.000000E+00       0.0%      0.0%      0.0%
 matmuls inhomo. stacks                         0       0.0%      0.0%      0.0%
 matmuls total                                  0       0.0%      0.0%      0.0%
 number of processed stacks                     0       0.0%      0.0%      0.0%
 average stack size                                     0.0       0.0       0.0
 marketing flops                     0.000000E+00
 -------------------------------------------------------------------------------
 -                                                                             -
 -                      DBCSR MESSAGE PASSING PERFORMANCE                      -
 -                                                                             -
 -------------------------------------------------------------------------------
 ROUTINE             CALLS      AVE VOLUME [Bytes]
 MP_Bcast                1                     12.
 MP_Allreduce           19                     21.
 -------------------------------------------------------------------------------

 -------------------------------------------------------------------------------
 -                                                                             -
 -                                GRID STATISTICS                              -
 -                                                                             -
 -------------------------------------------------------------------------------
 LP    KERNEL             BACKEND                              COUNT     PERCENT
 -------------------------------------------------------------------------------

 MEMORY| Estimated peak process memory [MiB]                                 168

 -------------------------------------------------------------------------------
 -                                                                             -
 -                         MESSAGE PASSING PERFORMANCE                         -
 -                                                                             -
 -------------------------------------------------------------------------------

 ROUTINE             CALLS      AVE VOLUME [Bytes]
 MP_Bcast              378                   5670.
 MP_Allreduce         2500                    286.
 MP_Sync               372
 MP_comm_split         186
 MP_Recv               555                  29184.
 -------------------------------------------------------------------------------


 -------------------------------------------------------------------------------
 -                                                                             -
 -                           R E F E R E N C E S                               -
 -                                                                             -
 -------------------------------------------------------------------------------
 
 CP2K version 8.2, the CP2K developers group (2021).
 CP2K is freely available from https://www.cp2k.org/ .

 Schuett, Ole; Messmer, Peter; Hutter, Juerg; VandeVondele, Joost. 
 Electronic Structure Calculations on Graphics Processing Units, John
 Wiley & Sons, Ltd, 173-190 (2016). 
 GPU-Accelerated Sparse Matrix-Matrix Multiplication for
 Linear Scaling Density Functional Theory.
 https://doi.org/10.1002/9781118670712.ch8

 Heinecke, A; Henry, G; Hutchinson, M; Pabst, H. 
 Proceedings of Intl. Supercomputing Conference, 981-991 (2016). 
 LIBXSMM: Accelerating Small Matrix Multiplications
 by Runtime Code Generation.
 https://doi.org/10.1109/SC.2016.83

 Borstnik, U; VandeVondele, J; Weber, V; Hutter, J. 
 PARALLEL COMPUTING, 40 (5-6), 47-58 (2014). 
 Sparse matrix multiplication: The distributed block-compressed sparse
 row library.
 https://doi.org/10.1016/j.parco.2014.03.012

 Hutter, J; Iannuzzi, M; Schiffmann, F; VandeVondele, J. 
 WIREs Comput Mol Sci., 4 (1), 15-25 (2014). 
 CP2K: atomistic simulations of condensed matter systems.
 https://doi.org/10.1002/wcms.1159

 Frigo, M; Johnson, SG. 
 PROCEEDINGS OF THE IEEE, 93 (2), 216-231 (2005). 
 The design and implementation of FFTW3.
 https://doi.org/10.1109/JPROC.2004.840301


 -------------------------------------------------------------------------------
 -                                                                             -
 -                                T I M I N G                                  -
 -                                                                             -
 -------------------------------------------------------------------------------
 SUBROUTINE                       CALLS  ASD         SELF TIME        TOTAL TIME
                                MAXIMUM       AVERAGE  MAXIMUM  AVERAGE  MAXIMUM
 CP2K                                 1  1.0    0.004    0.005    1.815    1.815
 cp_geo_opt                           1  2.0    0.000    0.000    1.800    1.800
 geoopt_bfgs                          1  3.0    0.012    0.022    1.800    1.800
 cp_fm_syevd                        186  4.0    0.001    0.001    0.886    0.921
 mp_sum_dm                          559  5.7    0.601    0.679    0.601    0.679
 virial_evaluate                    185  4.0    0.000    0.000    0.599    0.676
 write_restart                      186  4.0    0.066    0.569    0.102    0.613
 cp_fm_redistribute_end             186  5.0    0.345    0.595    0.349    0.598
 cp_fm_syevd_base                   186  5.0    0.243    0.551    0.243    0.551
 write_bfgs_hessian                 185  4.0    0.015    0.130    0.092    0.331
 cp_fm_redistribute_start           186  5.0    0.042    0.046    0.293    0.323
 mp_sync                            372  6.0    0.241    0.274    0.241    0.274
 cp_fm_write_unformatted            185  5.0    0.076    0.198    0.077    0.201
 write_trajectory                   372  4.0    0.012    0.080    0.015    0.102
 update_input                       186  5.0    0.001    0.001    0.036    0.045
 update_subsys                      186  6.0    0.002    0.002    0.034    0.042
 section_coord_val_set              186  7.0    0.032    0.040    0.032    0.040
 cp_eval_at                         187  4.0    0.009    0.012    0.037    0.038
 -------------------------------------------------------------------------------

 The number of warnings for this run is : 0
 
 -------------------------------------------------------------------------------
  **** **** ******  **  PROGRAM ENDED AT                 2023-03-08 08:50:17.420
 ***** ** ***  *** **   PROGRAM RAN ON                                eu-a2p-478
 **    ****   ******    PROGRAM RAN BY                                 jbachmann
 ***** **    ** ** **   PROGRAM PROCESS ID                                 70838
  **** **  *******  **  PROGRAM STOPPED IN /cluster/home/jbachmann/Molecular-and
                                           -Materials-Modelling-FS2023/exercise-
                                           3_files/BFGS-octahedron
