      38
 i =        1, E =        -0.0231086608
 Ar        16.8773225351        7.2595905272       13.9246835670
 Ar         5.1445774260       12.1651706949       12.9335732081
 Ar         5.2735834035        7.6991362952        4.8232906858
 Ar        12.8364493438        6.1020990866        6.6974280217
 Ar        11.5500367709       11.8937099415       16.5139212784
 Ar         6.3191623508        2.9465917487       12.3662449004
 Ar         5.0097768281       11.1288050517        5.9130582907
 Ar        14.9300246232        9.6842770065        4.4502649500
 Ar         9.3204834504       13.8216836184       13.6821819054
 Ar        16.3048449502       14.1627775793       11.1714446992
 Ar        10.3455979882        7.5346925164        2.4346063446
 Ar         8.3508762699       11.1582648723        3.7015193902
 Ar         6.8579967124       15.6180703299       10.5866008344
 Ar        13.8233942924       15.8383909030       14.7239350995
 Ar        16.5877673364        5.6453507366        6.6782412914
 Ar        18.3174455560       10.4084517472       11.2015760432
 Ar        14.2760771014       15.8330993349        7.8852311488
 Ar        12.6950255517       13.1297144697        4.4592124554
 Ar         9.6647760498       17.5332846748        9.4582151958
 Ar        10.1021162919       14.7366229656        7.6960231705
 Ar        15.7698709076       12.0760016906        7.9650277182
 Ar         6.4628690959        9.8457114978       17.5658647576
 Ar         9.0884715440        2.4786370017        4.5294324348
 Ar         1.6818075777       10.7077039704       10.2864666747
 Ar        12.8760281146        7.4339252282       16.9490781863
 Ar        15.7955337239        4.7799162753       10.3721394293
 Ar         6.5859106303        7.9986171117       12.4555433705
 Ar         4.7680176466        4.4382471619        9.4529032492
 Ar        11.3628469378        3.1524631571        9.5436953325
 Ar        11.9808250405        5.4315727779       12.6315346348
 Ar         8.3201982915        4.5020318861       14.9261998251
 Ar        11.7192541368       12.0427131530       10.0817985863
 Ar        13.4912342376       10.0288722260       12.5376314990
 Ar        10.9920265614        9.9336204382        6.9443919579
 Ar        12.3694066698        7.7495294615        9.3511475431
 Ar         8.4709033324       11.5515679903       10.3541394259
 Ar         9.8816536758        8.7621152524       12.1068854612
 Ar         9.2885090438        6.7930256192        9.2716474327
      38
 i =        2, E =        -0.0244173459
 Ar        16.8760008361        7.2601841722       13.9233103963
 Ar         5.1463605493       12.1646521991       12.9323884254
 Ar         5.2746356579        7.6970608053        4.8227017825
 Ar        12.8403991296        6.0841001597        6.6679658369
 Ar        11.5499376426       11.8933476161       16.5122970966
 Ar         6.3191582813        2.9452734449       12.3659700459
 Ar         5.0105167410       11.1311551419        5.9140510982
 Ar        14.9285870140        9.6844775453        4.4521482400
 Ar         9.3205302293       13.8203333520       13.6804101135
 Ar        16.3036581680       14.1618996977       11.1710752644
 Ar        10.3454476174        7.5355176407        2.4360572680
 Ar         8.3515493935       11.1571372542        3.7029325228
 Ar         6.8568653078       15.6142416467       10.5879343435
 Ar        13.8229994079       15.8372907652       14.7231910573
 Ar        16.5873920551        5.6459751661        6.6786056507
 Ar        18.3155332217       10.4087538819       11.2014856535
 Ar        14.2750215303       15.8309908085        7.8858116838
 Ar        12.6946633122       13.1285258878        4.4614809219
 Ar         9.6658971146       17.5454004254        9.4644134992
 Ar        10.1046314733       14.7236484686        7.6897719089
 Ar        15.7681059217       12.0756393332        7.9652521475
 Ar         6.4632329142        9.8457886458       17.5650071932
 Ar         9.0887059167        2.4792459290        4.5298390205
 Ar         1.6828125282       10.7078626235       10.2866926200
 Ar        12.8758154559        7.4345188678       16.9475303892
 Ar        15.7935460332        4.7813123502       10.3722995438
 Ar         6.5778911954        7.9965986699       12.4557716375
 Ar         4.7678728991        4.4399544027        9.4512495062
 Ar        11.3630974367        3.1551361264        9.5433928445
 Ar        11.9803482752        5.4333702826       12.6303271374
 Ar         8.3223594301        4.5044307840       14.9268466330
 Ar        11.7345095765       12.0457404549       10.0789190994
 Ar        13.4921798956       10.0268277333       12.5385658397
 Ar        10.9903579601        9.9363765838        6.9413848804
 Ar        12.3884887936        7.7728915681        9.3866816486
 Ar         8.4536831680       11.5518893775       10.3542539807
 Ar         9.8936226709        8.7650810946       12.1113435801
 Ar         9.2662872463        6.7834250932        9.2674194890
      38
 i =        3, E =        -0.0270054266
 Ar        16.8705225613        7.2626432684       13.9176279962
 Ar         5.1537134187       12.1625172803       12.9274886986
 Ar         5.2789638038        7.6887865664        4.8203752322
 Ar        12.8503245880        6.0293746128        6.5777714440
 Ar        11.5495324557       11.8918426799       16.5055861717
 Ar         6.3192057141        2.9399947116       12.3648779394
 Ar         5.0136012752       11.1405577412        5.9180696884
 Ar        14.9226546214        9.6852944247        4.4599102485
 Ar         9.3207033813       13.8147631909       13.6731136206
 Ar        16.2987376649       14.1582675000       11.1695554977
 Ar        10.3448423417        7.5389129425        2.4420678665
 Ar         8.3543404440       11.1524909631        3.7087748468
 Ar         6.8527016573       15.5987351711       10.5932244154
 Ar        13.8213693900       15.8327465885       14.7201165001
 Ar        16.5860473583        5.6485350914        6.6801168033
 Ar        18.3076228813       10.4099959272       11.2011115116
 Ar        14.2706609049       15.8222684394        7.8882084695
 Ar        12.6931490161       13.1236223576        4.4708748610
 Ar         9.6708603060       17.5896984972        9.4867749108
 Ar        10.1141506092       14.6755085514        7.6673602082
 Ar        15.7607767324       12.0741191490        7.9661933013
 Ar         6.4647344531        9.8461062269       17.5614659287
 Ar         9.0896862162        2.4817732811        4.5315233650
 Ar         1.6869696602       10.7085165286       10.2876264721
 Ar        12.8749337699        7.4369746043       16.9411221943
 Ar        15.7853522296        4.7870888944       10.3729926480
 Ar         6.5481309646        7.9890421167       12.4562894803
 Ar         4.7673787095        4.4469697767        9.4445460817
 Ar        11.3641109975        3.1660716759        9.5421344871
 Ar        11.9784401094        5.4407039118       12.6255050799
 Ar         8.3311486001        4.5142337178       14.9293443231
 Ar        11.7886906246       12.0568511634       10.0676504079
 Ar        13.4964239965       10.0185302889       12.5427238492
 Ar        10.9842298043        9.9464424705        6.9302589024
 Ar        12.4550615808        7.8458799298        9.5002041929
 Ar         8.3917311096       11.5539257755       10.3544345110
 Ar         9.9386121848        8.7761513126       12.1282964885
 Ar         9.1925858640        6.7501186702        9.2514613560
      38
 i =        4, E =        -0.0279588737
 Ar        16.8652383913        7.2650223219       13.9121722261
 Ar         5.1607497084       12.1604795688       12.9227794944
 Ar         5.2830943031        7.6813080016        4.8183068322
 Ar        12.8557056770        5.9905424138        6.5130758219
 Ar        11.5491503554       11.8903821631       16.4991325022
 Ar         6.3193523549        2.9351926040       12.3638949129
 Ar         5.0166099956       11.1491114771        5.9218016932
 Ar        14.9169610645        9.6860638839        4.4673472518
 Ar         9.3208382244       13.8094212308       13.6661350306
 Ar        16.2939603873       14.1547515861       11.1681098227
 Ar        10.3442820021        7.5421587108        2.4478694998
 Ar         8.3570404831       11.1480437306        3.7143978100
 Ar         6.8494471900       15.5843014890       10.5979963767
 Ar        13.8198045575       15.8283790952       14.7171595513
 Ar        16.5849835373        5.6509790768        6.6815844724
 Ar        18.3000019789       10.4111796175       11.2007509841
 Ar        14.2664610196       15.8138415429        7.8905150974
 Ar        12.6916666817       13.1189189374        4.4799396596
 Ar         9.6758239363       17.6255430350        9.5046169641
 Ar        10.1223097796       14.6355268366        7.6497009443
 Ar        15.7536755494       12.0726185138        7.9671151701
 Ar         6.4661757471        9.8464096631       17.5580640494
 Ar         9.0906450450        2.4842199196        4.5331494900
 Ar         1.6909749633       10.7091427202       10.2885248256
 Ar        12.8740809996        7.4393410622       16.9349385854
 Ar        15.7774954698        4.7926593249       10.3737028250
 Ar         6.5237882852        7.9827721554       12.4562696768
 Ar         4.7670456738        4.4536370661        9.4383137746
 Ar        11.3650563594        3.1764344382        9.5409056143
 Ar        11.9767047667        5.4475914282       12.6211245506
 Ar         8.3393734190        4.5235048893       14.9314495702
 Ar        11.8313282232       12.0660147099       10.0575035964
 Ar        13.5011254337       10.0110032076       12.5473543689
 Ar        10.9792887285        9.9546569247        6.9211708024
 Ar        12.5067210804        7.8987187103        9.5840944746
 Ar         8.3422030821       11.5563900992       10.3544553111
 Ar         9.9758019999        8.7854349722       12.1427893610
 Ar         9.1377355460        6.7243588724        9.2385670057
      38
 i =        5, E =        -0.0284728284
 Ar        16.8584548290        7.2680771794       13.9051951669
 Ar         5.1696681634       12.1579038098       12.9167866993
 Ar         5.2883256946        7.6723985726        4.8158918242
 Ar        12.8597409855        5.9508855454        6.4462851878
 Ar        11.5486566830       11.8885113202       16.4908700877
 Ar         6.3196511422        2.9294227502       12.3627351041
 Ar         5.0205073811       11.1593800646        5.9263906287
 Ar        14.9097064882        9.6870253169        4.4768080319
 Ar         9.3209677037       13.8026204713       13.6572756264
 Ar        16.2878482256       14.1502588591       11.1662889657
 Ar        10.3435977240        7.5462622455        2.4553307884
 Ar         8.3605101044       11.1423946473        3.7215821822
 Ar         6.8462316094       15.5664728799       10.6037310904
 Ar        13.8178103493       15.8228057449       14.7133836514
 Ar        16.5838545743        5.6540863561        6.6834811572
 Ar        18.2902710596       10.4126911327       11.2003070028
 Ar        14.2610920562       15.8030572229        7.8934575730
 Ar        12.6897418197       13.1129301887        4.4915525210
 Ar         9.6821264282       17.6645289658        9.5238898004
 Ar        10.1317566132       14.5907005304        7.6309232618
 Ar        15.7445431277       12.0706456435        7.9683082865
 Ar         6.4680125932        9.8467943084       17.5537255198
 Ar         9.0918897243        2.4873649902        4.5352340244
 Ar         1.6960994563       10.7099386431       10.2896721214
 Ar        12.8729853571        7.4423699376       16.9270125665
 Ar        15.7674906989        4.7997936137       10.3746653797
 Ar         6.4972515197        7.9758305291       12.4557151916
 Ar         4.7668403198        4.4620455835        9.4306564669
 Ar        11.3662233807        3.1894866905        9.5392796029
 Ar        11.9746240895        5.4561365288       12.6158811075
 Ar         8.3495633550        4.5351060270       14.9337459350
 Ar        11.8770406432       12.0762469480       10.0452481375
 Ar        13.5081237956       10.0023867603       12.5544599789
 Ar        10.9740049145        9.9637399370        6.9112758309
 Ar        12.5621532535        7.9530069814        9.6708519032
 Ar         8.2884889700       11.5597690527       10.3544731049
 Ar        10.0161775098        8.7959677034       12.1594776410
 Ar         9.0806696568        6.6970123181        9.2249308503
      38
 i =        6, E =        -0.0286633399
 Ar        16.8521734935        7.2709062419       13.8987674317
 Ar         5.1777632938       12.1555732596       12.9113243306
 Ar         5.2930845473        7.6649428595        4.8139319151
 Ar        12.8612070499        5.9225137642        6.3977379377
 Ar        11.5482120805       11.8867719271       16.4832682723
 Ar         6.3200710645        2.9245651144       12.3617638884
 Ar         5.0241517926       11.1680684861        5.9304076127
 Ar        14.9030575916        9.6878835601        4.4854623112
 Ar         9.3210367593       13.7963944267       13.6491938324
 Ar        16.2821947161       14.1461212965       11.1646459489
 Ar        10.3430016187        7.5499991629        2.4622280666
 Ar         8.3637247396       11.1372390338        3.7281880815
 Ar         6.8442656012       15.5507647536       10.6086099569
 Ar        13.8159706730       15.8176657758       14.7099053221
 Ar        16.5830222409        5.6569334729        6.6852513300
 Ar        18.2813098653       10.4140654427       11.1999046104
 Ar        14.2561475028       15.7931246754        7.8961573620
 Ar        12.6879390473       13.1074470657        4.5022655944
 Ar         9.6877185971       17.6940182242        9.5384447609
 Ar        10.1395439878       14.5552419229        7.6170782785
 Ar        15.7360808098       12.0687605815        7.9694166469
 Ar         6.4696967899        9.8471443712       17.5497446640
 Ar         9.0930569694        2.4902797816        4.5371590808
 Ar         1.7008210959       10.7106657866       10.2907265584
 Ar        12.8719704317        7.4451628390       16.9196904851
 Ar        15.7583264009        4.8063757196       10.3756134639
 Ar         6.4772240219        7.9704761199       12.4547117625
 Ar         4.7669149986        4.4696450969        9.4239798470
 Ar        11.3672544646        3.2012651646        9.5377353443
 Ar        11.9728693050        5.4636738773       12.6114751623
 Ar         8.3585619654        4.5454860954       14.9353989887
 Ar        11.9113556244       12.0842692534       10.0347037185
 Ar        13.5159118125        9.9961244164       12.5628859008
 Ar        10.9701505967        9.9708351512        6.9038209599
 Ar        12.6041614638        7.9914845233        9.7322514815
 Ar         8.2478073480       11.5629268107       10.3545636796
 Ar        10.0458616232        8.8045073023       12.1732048440
 Ar         9.0390800155        6.6767326431        9.2151605676
      38
 i =        7, E =        -0.0287650150
 Ar        16.8461387464        7.2736249687       13.8926305089
 Ar         5.1853330505       12.1534013964       12.9061967906
 Ar         5.2975607378        7.6586471813        4.8123508532
 Ar        12.8605742353        5.9028998537        6.3632698819
 Ar        11.5478019890       11.8850912561       16.4760230263
 Ar         6.3206294612        2.9204433875       12.3609363872
 Ar         5.0276879076       11.1755189748        5.9340134855
 Ar        14.8967492860        9.6886705328        4.4936561148
 Ar         9.3210471408       13.7904953181       13.6415686736
 Ar        16.2767729924       14.1421752790       11.1631200723
 Ar        10.3424701114        7.5535188085        2.4688362974
 Ar         8.3668136212       11.1323734012        3.7344771744
 Ar         6.8434193155       15.5365371219       10.6128511330
 Ar        13.8142198682       15.8127671480       14.7065904809
 Ar        16.5824058704        5.6596386827        6.6869650948
 Ar        18.2727573186       10.4153548021       11.1995279195
 Ar        14.2514257930       15.7836524418        7.8987211776
 Ar        12.6861890634       13.1022524004        4.5125042306
 Ar         9.6927289729       17.7159898209        9.5493326028
 Ar        10.1460937786       14.5269802852        7.6071139206
 Ar        15.7279741463       12.0668630743        7.9704723710
 Ar         6.4712957932        9.8474735793       17.5459626892
 Ar         9.0941935804        2.4930811688        4.5390015572
 Ar         1.7053288739       10.7113530373       10.2917300420
 Ar        12.8709955269        7.4478326491       16.9126763894
 Ar        15.7496353006        4.8126696773       10.3765841773
 Ar         6.4623933925        7.9663777421       12.4532842753
 Ar         4.7672836281        4.4767301982        9.4180347084
 Ar        11.3681925841        3.2122395850        9.5362066328
 Ar        11.9713728557        5.4704847102       12.6077380072
 Ar         8.3667191110        4.5550505369       14.9364636493
 Ar        11.9368672993       12.0905243970       10.0254535789
 Ar        13.5249362777        9.9924058388       12.5734161917
 Ar        10.9674648567        9.9764298813        6.8983060396
 Ar        12.6358699213        8.0170713929        9.7727018415
 Ar         8.2173636689       11.5658970015       10.3547439349
 Ar        10.0665326343        8.8115769578       12.1847735736
 Ar         9.0094632888        6.6619615112        9.2085445148
      38
 i =        8, E =        -0.0289071455
 Ar        16.8365477222        7.2779479370       13.8829329557
 Ar         5.1970531804       12.1500484876       12.8982377252
 Ar         5.3045421946        7.6498181735        4.8102473249
 Ar        12.8570966096        5.8811473447        6.3234968760
 Ar        11.5471776973       11.8824047128       16.4645901333
 Ar         6.3217245947        2.9146483488       12.3597568567
 Ar         5.0333504311       11.1861422273        5.9394008936
 Ar        14.8868351930        9.6898661837        4.5065119379
 Ar         9.3209891484       13.7812629562       13.6296616684
 Ar        16.2681732114       14.1359481263       11.1607740184
 Ar        10.3416812195        7.5590152931        2.4793092778
 Ar         8.3717221207       11.1247644572        3.7443874822
 Ar         6.8434284949       15.5150840997       10.6190093249
 Ar        13.8114619284       15.8050385939       14.7013609103
 Ar        16.5816185234        5.6638996970        6.6897028309
 Ar        18.2592446092       10.4173586963       11.1989439216
 Ar        14.2439578062       15.7687071021        7.9027520151
 Ar        12.6833882960       13.0941015413        4.5286936774
 Ar         9.7001728188       17.7429021107        9.5627931244
 Ar        10.1553160000       14.4893513474        7.5954066382
 Ar        15.7151196960       12.0637358099        7.9721306682
 Ar         6.4738106341        9.8479866609       17.5400121405
 Ar         9.0960192401        2.4975327923        4.5419188895
 Ar         1.7124515699       10.7124293647       10.2933109645
 Ar        12.8694471549        7.4520576030       16.9015575814
 Ar        15.7359783459        4.8226294622       10.3782034866
 Ar         6.4443518575        7.9611788987       12.4504433984
 Ar         4.7682788154        4.4876829823        9.4092422893
 Ar        11.3696160086        3.2292161332        9.5337116012
 Ar        11.9692512415        5.4807202169       12.6024651064
 Ar         8.3790102189        4.5696864653       14.9374375751
 Ar        11.9682587397       12.0985507442       10.0120023484
 Ar        13.5412634721        9.9897724701       12.5935051547
 Ar        10.9644766398        9.9838235663        6.8915873826
 Ar        12.6755053211        8.0434056364        9.8135817710
 Ar         8.1797927707       11.5704814299       10.3551395637
 Ar        10.0894658910        8.8214176401       12.2010814547
 Ar         8.9751225832        6.6442906868        9.2014790305
      38
 i =        9, E =        -0.0292336614
 Ar        16.8136715724        7.2882651591       13.8599059522
 Ar         5.2244142948       12.1422355087       12.8796393423
 Ar         5.3209646977        7.6307537950        4.8059231096
 Ar        12.8451075523        5.8437289656        6.2516918776
 Ar        11.5457452224       11.8759645716       16.4374646139
 Ar         6.3246836502        2.9021419198       12.3571574149
 Ar         5.0469189784       11.2094143583        5.9516702648
 Ar        14.8633853799        9.6926136221        4.5368878634
 Ar         9.3207244570       13.7594589196       13.6016125082
 Ar        16.2476970496       14.1211802473       11.1553302004
 Ar        10.3398946693        7.5719567358        2.5042308569
 Ar         8.3834260637       11.1068376237        3.7678664201
 Ar         6.8456332823       15.4658630145       10.6327504739
 Ar        13.8049294472       15.7867064052       14.6889570369
 Ar        16.5799541553        5.6740018315        6.6962479646
 Ar        18.2270889386       10.4220323652       11.1976117416
 Ar        14.2261988519       15.7332742507        7.9122849365
 Ar        12.6766861908       13.0748519635        4.5671467308
 Ar         9.7169899609       17.7945643055        9.5889689062
 Ar        10.1754088698       14.4110041996        7.5738190476
 Ar        15.6845361212       12.0560680280        7.9760275390
 Ar         6.4797631223        9.8491922206       17.5259255690
 Ar         9.1003866116        2.5081194996        4.5488310441
 Ar         1.7293996977       10.7149487785       10.2970509091
 Ar        12.8657837232        7.4621194890       16.8750583329
 Ar        15.7036710723        4.8463070105       10.3821848028
 Ar         6.4099375023        7.9508355924       12.4427916384
 Ar         4.7713602223        4.5132552178        9.3894245907
 Ar        11.3729054230        3.2689155693        9.5276388532
 Ar        11.9646265473        5.5041370659       12.5910029113
 Ar         8.4071628366        4.6036149682       14.9385254689
 Ar        12.0291881659       12.1145013221        9.9821765805
 Ar        13.5830680407        9.9888717949       12.6465795926
 Ar        10.9593539054        9.9991705361        6.8787119722
 Ar        12.7533427602        8.0841466163        9.8749512174
 Ar         8.1070507119       11.5811087931       10.3562067631
 Ar        10.1289315555        8.8427559865       12.2365151983
 Ar         8.9127106963        6.6111377488        9.1900097539
      38
 i =       10, E =        -0.0299131097
 Ar        16.7613767439        7.3118657400       13.8074603677
 Ar         5.2856733495       12.1247427907       12.8380487206
 Ar         5.3581223209        7.5904025775        4.7971639544
 Ar        12.8128060713        5.7785153357        6.1200102565
 Ar        11.5425923636       11.8611691275       16.3757022784
 Ar         6.3319977563        2.8757913398       12.3515148166
 Ar         5.0779866451       11.2592715770        5.9787555200
 Ar        14.8101284417        9.6986822892        4.6058363996
 Ar         9.3199184900       13.7099919142       13.5381182488
 Ar        16.2009613634       14.0875866875       11.1431892535
 Ar        10.3359735291        7.6012470123        2.5610873969
 Ar         8.4101632214       11.0662615714        3.8212349730
 Ar         6.8539064125       15.3565371123       10.6627195650
 Ar        13.7900815278       15.7449783717       14.6607253143
 Ar        16.5762253757        5.6970003040        6.7112098390
 Ar        18.1538064755       10.4325513379       11.1946290100
 Ar        14.1856610005       15.6527195810        7.9339229031
 Ar        12.6613801952       13.0312055440        4.6547003943
 Ar         9.7538064633       17.8946583656        9.6404669499
 Ar        10.2184075303       14.2483813203        7.5332377677
 Ar        15.6148572705       12.0381187972        7.9847522039
 Ar         6.4932927713        9.8519151326       17.4939103986
 Ar         9.1104118497        2.5323014934        4.5645870051
 Ar         1.7680141180       10.7206542032       10.3055522894
 Ar        12.8574243115        7.4850811188       16.8145475162
 Ar        15.6302701311        4.9002917207       10.3914564474
 Ar         6.3436941909        7.9301808718       12.4240820952
 Ar         4.7795991918        4.5707359661        9.3461070449
 Ar        11.3802728863        3.3583325725        9.5135196765
 Ar        11.9547863666        5.5560063456       12.5666232257
 Ar         8.4695650505        4.6795124266       14.9389652684
 Ar        12.1492177088       12.1459146989        9.9179899477
 Ar        13.6819745175        9.9946995649       12.7746837284
 Ar        10.9505680780       10.0310649444        6.8537303260
 Ar        12.9073586913        8.1464522360        9.9645193206
 Ar         7.9651602066       11.6046695304       10.3585713694
 Ar        10.1978449038        8.8885601230       12.3120049101
 Ar         8.7974144786        6.5480043543        9.1714432974
      38
 i =       11, E =        -0.0305195984
 Ar        16.6755475679        7.3506073049       13.7216702385
 Ar         5.3829461530       12.0967103051       12.7725542393
 Ar         5.4186436551        7.5280385210        4.7841638753
 Ar        12.7556115943        5.6912241817        5.9354576954
 Ar        11.5376446900       11.8367205760       16.2746224911
 Ar         6.3446391551        2.8354922602       12.3424905046
 Ar         5.1290234546       11.3370692171        6.0221373790
 Ar        14.7232181234        9.7082235936        4.7183521407
 Ar         9.3183870969       13.6292875459       13.4348433302
 Ar        16.1243373701       14.0327066669       11.1237963752
 Ar        10.3297811487        7.6489233096        2.6542853139
 Ar         8.4540014429       11.0003018849        3.9083617234
 Ar         6.8706169184       15.1814531372       10.7103346779
 Ar        13.7658335473       15.6767109869       14.6145444258
 Ar        16.5696347361        5.7346218588        6.7357060326
 Ar        18.0337703016       10.4495394451       11.1898354862
 Ar        14.1190738144       15.5213256236        7.9691943745
 Ar        12.6365710334       12.9601244877        4.7975746534
 Ar         9.8121862829       18.0411048335        9.7169845038
 Ar        10.2851539879       13.9983813203        7.4745868284
 Ar        15.5013167077       12.0077900852        7.9984423157
 Ar         6.5154044363        9.8563359706       17.4416061905
 Ar         9.1269601936        2.5719955829        4.5903998549
 Ar         1.8312392947       10.7299443393       10.3194392019
 Ar        12.8437254519        7.5227596699       16.7152265762
 Ar        15.5104180763        4.9886882605       10.4068471558
 Ar         6.2475699048        7.8993720605       12.3922206142
 Ar         4.7946955901        4.6637822226        9.2776587980
 Ar        11.3922200711        3.5032834589        9.4899100674
 Ar        11.9396528606        5.6388926808       12.5290059120
 Ar         8.5694876728        4.8019668217       14.9371288421
 Ar        12.3282120599       12.1916271350        9.8182808504
 Ar        13.8459607455       10.0115724577       12.9899056023
 Ar        10.9392394484       10.0802958457        6.8171362176
 Ar        13.1364030978        8.2200572700       10.0635679239
 Ar         7.7582989016       11.6413534958       10.3606486252
 Ar        10.2908310221        8.9611585732       12.4294188461
 Ar         8.6344443909        6.4566130097        9.1484401167
      38
 i =       12, E =        -0.0308147802
 Ar        16.6826903528        7.3472996528       13.7290073209
 Ar         5.3690906227       12.1000815805       12.7835049740
 Ar         5.4132461129        7.5370650593        4.7866483594
 Ar        12.7553510241        5.7206762858        5.9862035039
 Ar        11.5383073572       11.8385139321       16.2831420387
 Ar         6.3442543140        2.8418068686       12.3434520923
 Ar         5.1249143860       11.3266062465        6.0175312512
 Ar        14.7308777781        9.7068833943        4.7084693809
 Ar         9.3183929285       13.6363217880       13.4443430141
 Ar        16.1306650532       14.0374707017       11.1259970634
 Ar        10.3305784895        7.6445480683        2.6465572715
 Ar         8.4502676267       11.0064451113        3.9006940845
 Ar         6.8722373017       15.2014153299       10.7047672314
 Ar        13.7679348100       15.6824862616       14.6184608638
 Ar        16.5697628080        5.7314309539        6.7336602724
 Ar        18.0437537677       10.4478299626       11.1903384713
 Ar        14.1243779391       15.5331277106        7.9660131641
 Ar        12.6394956803       12.9665382096        4.7843697895
 Ar         9.8054671191       18.0096188931        9.7017628182
 Ar        10.2746136589       14.0379802861        7.4885590019
 Ar        15.5126092957       12.0090468415        7.9960432783
 Ar         6.5135082169        9.8559239363       17.4461147049
 Ar         9.1257038060        2.5687753168        4.5882454849
 Ar         1.8259524926       10.7291075819       10.3182395420
 Ar        12.8448607775        7.5196970852       16.7232527138
 Ar        15.5209378189        4.9811504275       10.4057784267
 Ar         6.2691865388        7.9052618672       12.3935188304
 Ar         4.7950582458        4.6548451604        9.2859371265
 Ar        11.3910983332        3.4894986125        9.4913181933
 Ar        11.9420132628        5.6297271174       12.5346645033
 Ar         8.5588107351        4.7898029087       14.9346832693
 Ar        12.2924290710       12.1816955891        9.8330180388
 Ar        13.8343089191       10.0173947478       12.9771967296
 Ar        10.9435790341       10.0724596895        6.8252053100