#     Step Nr.          Time[fs]        Kin.[a.u.]          Temp[K]            Pot.[a.u.]        Cons Qty[a.u.]        UsedTime[s]
    200010       100005.000000         0.079000199        20.405938586        -1.859282970        -1.780282772         0.003965759
    200020       100010.000000         0.078889338        20.377303063        -1.859172111        -1.780282773         0.003979893
    200030       100015.000000         0.078763418        20.344777567        -1.859046191        -1.780282773         0.004003609
    200040       100020.000000         0.078622455        20.308366616        -1.858905221        -1.780282766         0.003985645
    200050       100025.000000         0.078467003        20.268212960        -1.858749777        -1.780282774         0.003980225
    200060       100030.000000         0.078298071        20.224577308        -1.858580846        -1.780282776         0.003981507
    200070       100035.000000         0.078116960        20.177796065        -1.858399732        -1.780282772         0.003988881
    200080       100040.000000         0.077925611        20.128369937        -1.858208380        -1.780282769         0.003970115
    200090       100045.000000         0.077726164        20.076852353        -1.858008934        -1.780282770         0.003955920
    200100       100050.000000         0.077521031        20.023866051        -1.857803802        -1.780282771         0.003981106
    200110       100055.000000         0.077312904        19.970106371        -1.857595665        -1.780282761         0.003973212
    200120       100060.000000         0.077104685        19.916322787        -1.857387446        -1.780282762         0.003998600
    200130       100065.000000         0.076899553        19.863336699        -1.857182308        -1.780282756         0.003994663
    200140       100070.000000         0.076700631        19.811954854        -1.856983380        -1.780282749         0.003963804
    200150       100075.000000         0.076510697        19.762894310        -1.856793449        -1.780282753         0.003980426
    200160       100080.000000         0.076332893        19.716967228        -1.856615639        -1.780282746         0.004003518
    200170       100085.000000         0.076170399        19.674994631        -1.856453153        -1.780282754         0.003989683
    200180       100090.000000         0.076025880        19.637664944        -1.856308631        -1.780282751         0.003972341
    200190       100095.000000         0.075901422        19.605517148        -1.856184174        -1.780282753         0.004005713
    200200       100100.000000         0.075799014        19.579065098        -1.856081765        -1.780282751         0.003970708
    200210       100105.000000         0.075720549        19.558797206        -1.856003293        -1.780282744         0.003976889
    200220       100110.000000         0.075667263        19.545033340        -1.855950005        -1.780282742         0.003989263
    200230       100115.000000         0.075639832        19.537947878        -1.855922562        -1.780282730         0.003967671
    200240       100120.000000         0.075638994        19.537731483        -1.855921730        -1.780282736         0.003971018
    200250       100125.000000         0.075664835        19.544406160        -1.855947571        -1.780282736         0.003948567
    200260       100130.000000         0.075716450        19.557738564        -1.855999183        -1.780282733         0.003986145
    200270       100135.000000         0.075792600        19.577408150        -1.856075339        -1.780282740         0.003956751
    200280       100140.000000         0.075892019        19.603088520        -1.856174759        -1.780282740         0.003952613
    200290       100145.000000         0.076012884        19.634308195        -1.856295628        -1.780282744         0.003964435
    200300       100150.000000         0.076153650        19.670668345        -1.856436394        -1.780282744         0.003972270
    200310       100155.000000         0.076312346        19.711659870        -1.856595090        -1.780282744         0.003987038
    200320       100160.000000         0.076486621        19.756675421        -1.856769361        -1.780282740         0.003980056
    200330       100165.000000         0.076674010        19.805078516        -1.856956752        -1.780282742         0.004016695
    200340       100170.000000         0.076872179        19.856266013        -1.857154917        -1.780282738         0.003990824
    200350       100175.000000         0.077078837        19.909646389        -1.857361585        -1.780282748         0.003974895
    200360       100180.000000         0.077291710        19.964631947        -1.857574460        -1.780282749         0.003993119
    200370       100185.000000         0.077508372        20.020596320        -1.857791125        -1.780282752         0.003995293
    200380       100190.000000         0.077726496        20.076938167        -1.858009253        -1.780282757         0.004001676
    200390       100195.000000         0.077944064        20.133136609        -1.858226820        -1.780282755         0.003990515
    200400       100200.000000         0.078159315        20.188736411        -1.858442070        -1.780282754         0.003975327
    200410       100205.000000         0.078370946        20.243401098        -1.858653697        -1.780282751         0.003961780
    200420       100210.000000         0.078577262        20.296692973        -1.858860011        -1.780282749         0.003972742
    200430       100215.000000         0.078776691        20.348206060        -1.859059439        -1.780282748         0.003967271
    200440       100220.000000         0.078967944        20.397607248        -1.859250698        -1.780282753         0.003901938
    200450       100225.000000         0.079150268        20.444701968        -1.859433022        -1.780282754         0.003790960
    200460       100230.000000         0.079322941        20.489303607        -1.859605703        -1.780282762         0.003665314
    200470       100235.000000         0.079484799        20.531111894        -1.859767564        -1.780282765         0.003559574
    200480       100240.000000         0.079635121        20.569940582        -1.859917884        -1.780282763         0.003480125
    200490       100245.000000         0.079772673        20.605470613        -1.860055435        -1.780282761         0.003372863
    200500       100250.000000         0.079896740        20.637517368        -1.860179508        -1.780282768         0.003297211
    200510       100255.000000         0.080006442        20.665853503        -1.860289212        -1.780282770         0.003237098
    200520       100260.000000         0.080101103        20.690304660        -1.860383873        -1.780282771         0.003124266
    200530       100265.000000         0.080179713        20.710609987        -1.860462481        -1.780282768         0.003065245
    200540       100270.000000         0.080241151        20.726479601        -1.860523922        -1.780282770         0.002979353
    200550       100275.000000         0.080284790        20.737751461        -1.860567566        -1.780282777         0.002942553
    200560       100280.000000         0.080309758        20.744200753        -1.860592529        -1.780282771         0.002944417
    200570       100285.000000         0.080315332        20.745640730        -1.860598099        -1.780282766         0.002941622
    200580       100290.000000         0.080300644        20.741846733        -1.860583416        -1.780282772         0.002941311
    200590       100295.000000         0.080265114        20.732669335        -1.860547886        -1.780282771         0.002940760
    200600       100300.000000         0.080208619        20.718076381        -1.860491388        -1.780282769         0.002938798
    200610       100305.000000         0.080131084        20.698048879        -1.860413853        -1.780282769         0.002949387
    200620       100310.000000         0.080032529        20.672591906        -1.860315290        -1.780282761         0.002943466
    200630       100315.000000         0.079913267        20.641786221        -1.860196032        -1.780282765         0.002924318
    200640       100320.000000         0.079773825        20.605768090        -1.860056584        -1.780282759         0.002935479
    200650       100325.000000         0.079615377        20.564840490        -1.859898137        -1.780282761         0.002921926
    200660       100330.000000         0.079439378        20.519379738        -1.859722145        -1.780282767         0.002937013
    200670       100335.000000         0.079247296        20.469764398        -1.859530060        -1.780282764         0.002952252
    200680       100340.000000         0.079041045        20.416489293        -1.859323810        -1.780282765         0.002924219
    200690       100345.000000         0.078823147        20.360205630        -1.859105923        -1.780282777         0.002954807
    200700       100350.000000         0.078596286        20.301607050        -1.858879061        -1.780282774         0.002940889
    200710       100355.000000         0.078363033        20.241357118        -1.858645808        -1.780282775         0.002953384
    200720       100360.000000         0.078126143        20.180167910        -1.858408909        -1.780282766         0.002941702
    200730       100365.000000         0.077888418        20.118763043        -1.858171193        -1.780282775         0.002930782
    200740       100370.000000         0.077652775        20.057895963        -1.857935549        -1.780282774         0.002932355
    200750       100375.000000         0.077422303        19.998364343        -1.857705079        -1.780282776         0.002946622
    200760       100380.000000         0.077199797        19.940890469        -1.857482570        -1.780282773         0.002932114
    200770       100385.000000         0.076988221        19.886239859        -1.857270992        -1.780282771         0.002922025
    200780       100390.000000         0.076790230        19.835098365        -1.857072996        -1.780282766         0.002937394
    200790       100395.000000         0.076608358        19.788120459        -1.856891121        -1.780282763         0.002932264
    200800       100400.000000         0.076444840        19.745883266        -1.856727602        -1.780282762         0.002946041
    200810       100405.000000         0.076301882        19.708956990        -1.856584642        -1.780282760         0.002938136
    200820       100410.000000         0.076180986        19.677729255        -1.856463744        -1.780282758         0.002945228
    200830       100415.000000         0.076083084        19.652440828        -1.856365851        -1.780282767         0.002933447
    200840       100420.000000         0.076009115        19.633334641        -1.856291881        -1.780282766         0.002927034
    200850       100425.000000         0.075959332        19.620475585        -1.856242095        -1.780282762         0.002924350
    200860       100430.000000         0.075933715        19.613858580        -1.856216483        -1.780282768         0.002935670
    200870       100435.000000         0.075931665        19.613329016        -1.856214438        -1.780282773         0.002931383
    200880       100440.000000         0.075952737        19.618771921        -1.856235515        -1.780282779         0.002935400
    200890       100445.000000         0.075995070        19.629706667        -1.856277851        -1.780282781         0.002931052
    200900       100450.000000         0.076057266        19.645772048        -1.856340043        -1.780282778         0.002917716
    200910       100455.000000         0.076137341        19.666455595        -1.856420122        -1.780282781         0.002911957
    200920       100460.000000         0.076232778        19.691107240        -1.856515564        -1.780282786         0.002923217
    200930       100465.000000         0.076340837        19.719019052        -1.856623621        -1.780282785         0.002923879
    200940       100470.000000         0.076458677        19.749457498        -1.856741460        -1.780282783         0.002926263
    200950       100475.000000         0.076583326        19.781654566        -1.856866103        -1.780282778         0.002925891
    200960       100480.000000         0.076711715        19.814817754        -1.856994500        -1.780282786         0.002918519
    200970       100485.000000         0.076840582        19.848104576        -1.857123375        -1.780282793         0.002922115
    200980       100490.000000         0.076967251        19.880823322        -1.857250045        -1.780282795         0.002923418
    200990       100495.000000         0.077089242        19.912333894        -1.857372029        -1.780282787         0.002918839
    201000       100500.000000         0.077203677        19.941892900        -1.857486466        -1.780282788         0.002917336
    201010       100505.000000         0.077308023        19.968845562        -1.857590812        -1.780282789         0.002932886
    201020       100510.000000         0.077400445        19.992718469        -1.857683237        -1.780282792         0.002934288
    201030       100515.000000         0.077479275        20.013080493        -1.857762060        -1.780282785         0.003623934
    201040       100520.000000         0.077543245        20.029603990        -1.857826033        -1.780282788         0.002928126
    201050       100525.000000         0.077590889        20.041910448        -1.857873675        -1.780282787         0.002915053
    201060       100530.000000         0.077621147        20.049726233        -1.857903933        -1.780282786         0.002920392
    201070       100535.000000         0.077633603        20.052943599        -1.857916389        -1.780282786         0.002922066
    201080       100540.000000         0.077628116        20.051526478        -1.857910898        -1.780282782         0.002918970
    201090       100545.000000         0.077605129        20.045588680        -1.857887917        -1.780282788         0.002941121
    201100       100550.000000         0.077565269        20.035292725        -1.857848058        -1.780282789         0.002910844
    201110       100555.000000         0.077509287        20.020832578        -1.857792086        -1.780282799         0.002935249
    201120       100560.000000         0.077438277        20.002490495        -1.857721079        -1.780282802         0.002930070
    201130       100565.000000         0.077353894        19.980694152        -1.857636689        -1.780282795         0.002924129
    201140       100570.000000         0.077257620        19.955826495        -1.857540417        -1.780282796         0.002926333
    201150       100575.000000         0.077151574        19.928434393        -1.857434378        -1.780282804         0.002923088
    201160       100580.000000         0.077037751        19.899033679        -1.857320550        -1.780282799         0.002916385
    201170       100585.000000         0.076918073        19.868120713        -1.857200885        -1.780282812         0.002927535
    201180       100590.000000         0.076794703        19.836253865        -1.857077511        -1.780282808         0.002934789
    201190       100595.000000         0.076669796        19.803990037        -1.856952601        -1.780282805         0.002928487
    201200       100600.000000         0.076545170        19.771798799        -1.856827972        -1.780282802         0.002953444
    201210       100605.000000         0.076422887        19.740212869        -1.856705691        -1.780282804         0.002914472
    201220       100610.000000         0.076304852        19.709724165        -1.856587649        -1.780282797         0.002934990
    201230       100615.000000         0.076192429        19.680685083        -1.856475223        -1.780282794         0.002946241
    201240       100620.000000         0.076086758        19.653390055        -1.856369564        -1.780282806         0.002924500
    201250       100625.000000         0.075988962        19.628129084        -1.856271760        -1.780282797         0.002915012
    201260       100630.000000         0.075899874        19.605117270        -1.856182674        -1.780282800         0.002948035
    201270       100635.000000         0.075820026        19.584492335        -1.856102818        -1.780282792         0.002923849
    201280       100640.000000         0.075749789        19.566350123        -1.856032586        -1.780282797         0.008523820
    201290       100645.000000         0.075688925        19.550628633        -1.855971735        -1.780282810         0.002947153
    201300       100650.000000         0.075637468        19.537337305        -1.855920279        -1.780282811         0.002932054
    201310       100655.000000         0.075595079        19.526387984        -1.855877888        -1.780282810         0.002926924
    201320       100660.000000         0.075561420        19.517693991        -1.855844239        -1.780282818         0.002940500
    201330       100665.000000         0.075536277        19.511199336        -1.855819091        -1.780282814         0.002927475
    201340       100670.000000         0.075519172        19.506781113        -1.855801985        -1.780282813         0.002924250
    201350       100675.000000         0.075509470        19.504275088        -1.855792282        -1.780282812         0.002945039
    201360       100680.000000         0.075506719        19.503564455        -1.855789535        -1.780282816         0.002920031
    201370       100685.000000         0.075510872        19.504637266        -1.855793699        -1.780282827         0.002932856
    201380       100690.000000         0.075521573        19.507401313        -1.855804408        -1.780282835         0.002919090
    201390       100695.000000         0.075538741        19.511835809        -1.855821584        -1.780282843         0.002928548
    201400       100700.000000         0.075562372        19.517939868        -1.855845212        -1.780282840         0.002936973
    201410       100705.000000         0.075592685        19.525769709        -1.855875527        -1.780282842         0.002923147
    201420       100710.000000         0.075629908        19.535384526        -1.855912750        -1.780282842         0.002925651
    201430       100715.000000         0.075674224        19.546831404        -1.855957059        -1.780282835         0.002923057
    201440       100720.000000         0.075726043        19.560216506        -1.856008873        -1.780282829         0.002936171
    201450       100725.000000         0.075785632        19.575608299        -1.856068466        -1.780282834         0.002931914
    201460       100730.000000         0.075853582        19.593160066        -1.856136424        -1.780282842         0.002934428
    201470       100735.000000         0.075930400        19.613002302        -1.856213240        -1.780282840         0.002924451
    201480       100740.000000         0.076016587        19.635264515        -1.856299427        -1.780282841         0.002928828
    201490       100745.000000         0.076112302        19.659988081        -1.856395148        -1.780282846         0.002928106
    201500       100750.000000         0.076217544        19.687172160        -1.856500387        -1.780282844         0.002925483
    201510       100755.000000         0.076332438        19.716849605        -1.856615278        -1.780282841         0.002934439
    201520       100760.000000         0.076456644        19.748932448        -1.856739491        -1.780282847         0.002926253
    201530       100765.000000         0.076589378        19.783217779        -1.856872226        -1.780282849         0.002930932
    201540       100770.000000         0.076729791        19.819486814        -1.857012640        -1.780282849         0.002950409
    201550       100775.000000         0.076876715        19.857437611        -1.857159574        -1.780282859         0.002924360
    201560       100780.000000         0.077028529        19.896651513        -1.857311401        -1.780282873         0.002932044
    201570       100785.000000         0.077183342        19.936640210        -1.857466214        -1.780282872         0.002955338
    201580       100790.000000         0.077339381        19.976945353        -1.857622245        -1.780282865         0.002918549
    201590       100795.000000         0.077494566        20.017030058        -1.857777428        -1.780282862         0.002927477
    201600       100800.000000         0.077646735        20.056335584        -1.857929594        -1.780282860         0.002937013
    201610       100805.000000         0.077793754        20.094311008        -1.858076617        -1.780282863         0.002928497
    201620       100810.000000         0.077933727        20.130466348        -1.858216590        -1.780282863         0.002944829
    201630       100815.000000         0.078064969        20.164366667        -1.858347837        -1.780282867         0.002920773
    201640       100820.000000         0.078185766        20.195568714        -1.858468631        -1.780282864         0.002943967
    201650       100825.000000         0.078294694        20.223704940        -1.858577564        -1.780282870         0.002933196
    201660       100830.000000         0.078390769        20.248521525        -1.858673642        -1.780282873         0.002917657
    201670       100835.000000         0.078473166        20.269804709        -1.858756033        -1.780282867         0.002936322
    201680       100840.000000         0.078541526        20.287462406        -1.858824393        -1.780282867         0.002914811
    201690       100845.000000         0.078595895        20.301506067        -1.858878762        -1.780282866         0.002918268
    201700       100850.000000         0.078636567        20.312011648        -1.858919442        -1.780282875         0.002940410
    201710       100855.000000         0.078663581        20.318989431        -1.858946453        -1.780282872         0.002916856
    201720       100860.000000         0.078677669        20.322628403        -1.858960534        -1.780282865         0.002931753
    201730       100865.000000         0.078679479        20.323095817        -1.858962330        -1.780282852         0.002937545
    201740       100870.000000         0.078669776        20.320589687        -1.858952623        -1.780282847         0.002941852
    201750       100875.000000         0.078649197        20.315274089        -1.858932044        -1.780282846         0.002930571
    201760       100880.000000         0.078618527        20.307351867        -1.858901369        -1.780282842         0.002938666
    201770       100885.000000         0.078578824        20.297096543        -1.858861664        -1.780282840         0.002945120
    201780       100890.000000         0.078530411        20.284591339        -1.858813254        -1.780282843         0.002915202
    201790       100895.000000         0.078474165        20.270062886        -1.858757009        -1.780282844         0.002916074
    201800       100900.000000         0.078410811        20.253698410        -1.858693648        -1.780282837         0.002941863
    201810       100905.000000         0.078340832        20.235622709        -1.858623674        -1.780282842         0.002932935
    201820       100910.000000         0.078264696        20.215956451        -1.858547548        -1.780282852         0.002933817
    201830       100915.000000         0.078182854        20.194816391        -1.858465699        -1.780282845         0.002915212
    201840       100920.000000         0.078095775        20.172323784        -1.858378612        -1.780282837         0.002934779
    201850       100925.000000         0.078004078        20.148638315        -1.858286923        -1.780282845         0.002923408
    201860       100930.000000         0.077908179        20.123867352        -1.858191030        -1.780282851         0.002970167
    201870       100935.000000         0.077808442        20.098104990        -1.858091296        -1.780282854         0.002938727
    201880       100940.000000         0.077705372        20.071481733        -1.857988232        -1.780282860         0.002935620
    201890       100945.000000         0.077599771        20.044204764        -1.857882639        -1.780282868         0.002925882
    201900       100950.000000         0.077492085        20.016389348        -1.857774957        -1.780282872         0.002932476
    201910       100955.000000         0.077383088        19.988235138        -1.857665959        -1.780282870         0.002929259
    201920       100960.000000         0.077273883        19.960027207        -1.857556752        -1.780282869         0.002934820
    201930       100965.000000         0.077165186        19.931950437        -1.857448042        -1.780282856         0.002933236
    201940       100970.000000         0.077057682        19.904181869        -1.857340535        -1.780282853         0.002930972
    201950       100975.000000         0.076952366        19.876978476        -1.857235212        -1.780282847         0.002922025
    201960       100980.000000         0.076850254        19.850602707        -1.857133113        -1.780282860         0.002925462
    201970       100985.000000         0.076751981        19.825218611        -1.857034841        -1.780282860         0.002931643
    201980       100990.000000         0.076658067        19.800960517        -1.856940927        -1.780282860         0.002925502
    201990       100995.000000         0.076569168        19.777997658        -1.856852019        -1.780282851         0.002932775
    202000       101000.000000         0.076485725        19.756444142        -1.856768583        -1.780282858         0.002946050
    202010       101005.000000         0.076408139        19.736403431        -1.856690997        -1.780282858         0.002932195
    202020       101010.000000         0.076336670        19.717942748        -1.856619528        -1.780282859         0.002929038
    202030       101015.000000         0.076271560        19.701124628        -1.856554423        -1.780282863         0.002944447
    202040       101020.000000         0.076212779        19.685941451        -1.856495643        -1.780282865         0.002940000
    202050       101025.000000         0.076160425        19.672418229        -1.856443284        -1.780282860         0.002933376
    202060       101030.000000         0.076114461        19.660545788        -1.856397328        -1.780282867         0.002941372
    202070       101035.000000         0.076074647        19.650261585        -1.856357519        -1.780282872         0.002936764
    202080       101040.000000         0.076041203        19.641622991        -1.856324077        -1.780282874         0.002939178
    202090       101045.000000         0.076013732        19.634527051        -1.856296603        -1.780282872         0.002946761
    202100       101050.000000         0.075992043        19.628924916        -1.856274922        -1.780282879         0.002930040
    202110       101055.000000         0.075976275        19.624851999        -1.856259160        -1.780282885         0.002927626
    202120       101060.000000         0.075966046        19.622209663        -1.856248934        -1.780282888         0.002916875
    202130       101065.000000         0.075961250        19.620970979        -1.856244137        -1.780282887         0.002932264
    202140       101070.000000         0.075961856        19.621127461        -1.856244735        -1.780282879         0.002939197
    202150       101075.000000         0.075967789        19.622660050        -1.856250669        -1.780282880         0.002935621
    202160       101080.000000         0.075978954        19.625543925        -1.856261831        -1.780282877         0.002928597
    202170       101085.000000         0.075994807        19.629638884        -1.856277687        -1.780282879         0.002946751
    202180       101090.000000         0.076015165        19.634897385        -1.856298040        -1.780282875         0.002925412
    202190       101095.000000         0.076039961        19.641302173        -1.856322837        -1.780282876         0.002926493
    202200       101100.000000         0.076069213        19.648857941        -1.856352084        -1.780282871         0.002933716
    202210       101105.000000         0.076102765        19.657524703        -1.856385635        -1.780282869         0.002922284
    202220       101110.000000         0.076140127        19.667175233        -1.856422995        -1.780282868         0.002921494
    202230       101115.000000         0.076180702        19.677655978        -1.856463572        -1.780282870         0.002923978
    202240       101120.000000         0.076223996        19.688838971        -1.856506864        -1.780282868         0.002931513
    202250       101125.000000         0.076269506        19.700594210        -1.856552374        -1.780282868         0.002932413
    202260       101130.000000         0.076316889        19.712833463        -1.856599764        -1.780282874         0.002935520
    202270       101135.000000         0.076365584        19.725411379        -1.856648450        -1.780282866         0.002927565
    202280       101140.000000         0.076414814        19.738127537        -1.856697680        -1.780282866         0.002935741