#     Step Nr.          Time[fs]        Kin.[a.u.]          Temp[K]            Pot.[a.u.]        Cons Qty[a.u.]        UsedTime[s]
         0            0.000000         0.077428635        20.000000000        -1.938413447        -1.860984812         0.000000000
        10            5.000000         0.077296301        19.965817770        -1.938300531        -1.860984823         0.004569282
        20           10.000000         0.077099906        19.915088599        -1.937940145        -1.860984826         0.004548823
        30           15.000000         0.076454185        19.748297230        -1.937335397        -1.860984826         0.004590272
        40           20.000000         0.075731336        19.561583684        -1.936491794        -1.860984821         0.004547592
        50           25.000000         0.074646222        19.281296176        -1.935417017        -1.860984811         0.004585343
        60           30.000000         0.073363271        18.949906821        -1.934121197        -1.860984808         0.004965648
        70           35.000000         0.071943140        18.583083714        -1.932616381        -1.860984801         0.004562730
        80           40.000000         0.070153290        18.120761159        -1.930915488        -1.860984783         0.004719195
        90           45.000000         0.068225741        17.622870595        -1.929035717        -1.860984770         0.004565626
       100           50.000000         0.066112144        17.076923490        -1.926995696        -1.860984759         0.004567359
       110           55.000000         0.064019255        16.536325299        -1.924812903        -1.860984742         0.004560336
       120           60.000000         0.061781952        15.958424556        -1.922505166        -1.860984734         0.004545148
       130           65.000000         0.059412749        15.346453785        -1.920095897        -1.860984720         0.004560316
       140           70.000000         0.056981257        14.718393633        -1.917605548        -1.860984710         0.004590593
       150           75.000000         0.054453541        14.065478633        -1.915060013        -1.860984692         0.004606281
       160           80.000000         0.051926804        13.412816555        -1.912481364        -1.860984673         0.004560065
       170           85.000000         0.049414122        12.763784745        -1.909893282        -1.860984659         0.004589811
       180           90.000000         0.046963066        12.130671292        -1.907319491        -1.860984641         0.004541781
       190           95.000000         0.044290005        11.440213284        -1.904786497        -1.860984632         0.004555777
       200          100.000000         0.041864536        10.813708853        -1.902317168        -1.860984620         0.004570054
       210          105.000000         0.039542376        10.213889575        -1.899932889        -1.860984606         0.004544606
       220          110.000000         0.037240889         9.619409968        -1.897652385        -1.860984594         0.004599640
       230          115.000000         0.035161198         9.082220854        -1.895496129        -1.860984582         0.004532163
       240          120.000000         0.033132808         8.558282876        -1.893479785        -1.860984573         0.004587889
       250          125.000000         0.031422529         8.116513763        -1.891616640        -1.860984562         0.004578580
       260          130.000000         0.029903139         7.724051624        -1.889916418        -1.860984555         0.004581145
       270          135.000000         0.028494609         7.360225115        -1.888389880        -1.860984550         0.004550958
       280          140.000000         0.027176476         7.019748099        -1.887045201        -1.860984547         0.004539326
       290          145.000000         0.026034450         6.724760203        -1.885886717        -1.860984548         0.004548554
       300          150.000000         0.025086054         6.479787093        -1.884918895        -1.860984551         0.004557621
       310          155.000000         0.024311486         6.279714499        -1.884139170        -1.860984549         0.004580093
       320          160.000000         0.023824502         6.153925423        -1.883543657        -1.860984554         0.004572338
       330          165.000000         0.023422252         6.050023283        -1.883127193        -1.860984559         0.004562110
       340          170.000000         0.023206801         5.994371688        -1.882882004        -1.860984568         0.004551128
       350          175.000000         0.023324465         6.024764660        -1.882798022        -1.860984576         0.004556548
       360          180.000000         0.023451990         6.057704594        -1.882864138        -1.860984587         0.004538816
       370          185.000000         0.023710252         6.124414291        -1.883067936        -1.860984594         0.004540789
       380          190.000000         0.024130796         6.233041751        -1.883395986        -1.860984606         0.004545137
       390          195.000000         0.024639992         6.364568404        -1.883833808        -1.860984616         0.004560245
       400          200.000000         0.025207817         6.511238950        -1.884367043        -1.860984626         0.004574403
       410          205.000000         0.025871451         6.682657074        -1.884980480        -1.860984637         0.004535710
       420          210.000000         0.026581701         6.866116397        -1.885659504        -1.860984650         0.004617844
       430          215.000000         0.027398351         7.077059038        -1.886389401        -1.860984658         0.004552802
       440          220.000000         0.028239667         7.294372977        -1.887156838        -1.860984662         0.004580524
       450          225.000000         0.029130274         7.524418898        -1.887948337        -1.860984676         0.004549535
       460          230.000000         0.030008039         7.751147667        -1.888752461        -1.860984685         0.004560937
       470          235.000000         0.030846429         7.967705830        -1.889556349        -1.860984688         0.004566076
       480          240.000000         0.031690797         8.185808041        -1.890348722        -1.860984695         0.004566988
       490          245.000000         0.032382871         8.364572325        -1.891120631        -1.860984699         0.004563081
       500          250.000000         0.033103953         8.550829488        -1.891864246        -1.860984702         0.004565586
       510          255.000000         0.033865798         8.747615807        -1.892573711        -1.860984709         0.004565876
       520          260.000000         0.034593269         8.935523284        -1.893243525        -1.860984717         0.005435141
       530          265.000000         0.035213346         9.095690869        -1.893869371        -1.860984721         0.005492779
       540          270.000000         0.035777400         9.241387108        -1.894448082        -1.860984727         0.005424351
       550          275.000000         0.036257283         9.365342234        -1.894977305        -1.860984733         0.005380297
       560          280.000000         0.036756365         9.494256320        -1.895456735        -1.860984736         0.005319173
       570          285.000000         0.037289212         9.631891770        -1.895886746        -1.860984735         0.005249201
       580          290.000000         0.037715191         9.741923326        -1.896267892        -1.860984737         0.005125037
       590          295.000000         0.038118505         9.846100182        -1.896601333        -1.860984744         0.005022595
       600          300.000000         0.038475122         9.938215294        -1.896888808        -1.860984747         0.004895376
       610          305.000000         0.038784973        10.018250397        -1.897132967        -1.860984738         0.007310497
       620          310.000000         0.039013116        10.077180303        -1.897336729        -1.860984733         0.004992940
       630          315.000000         0.039145863        10.111469122        -1.897503370        -1.860984734         0.004985876
       640          320.000000         0.039199713        10.125378855        -1.897636649        -1.860984734         0.004920573
       650          325.000000         0.039407246        10.178984993        -1.897740816        -1.860984731         0.004809604
       660          330.000000         0.039597463        10.228118623        -1.897819992        -1.860984723         0.006801190
       670          335.000000         0.039578303        10.223169422        -1.897877551        -1.860984718         0.005077288
       680          340.000000         0.039497771        10.202367976        -1.897917476        -1.860984713         0.004948576
       690          345.000000         0.039535684        10.212160825        -1.897943883        -1.860984710         0.004928247
       700          350.000000         0.039608697        10.231020413        -1.897960411        -1.860984706         0.006113697
       710          355.000000         0.039658318        10.243837424        -1.897970193        -1.860984703         0.005381099
       720          360.000000         0.039592152        10.226746632        -1.897976226        -1.860984709         0.005340232
       730          365.000000         0.039572022        10.221547168        -1.897981524        -1.860984702         0.005324252
       740          370.000000         0.039605707        10.230247999        -1.897988470        -1.860984701         0.005294747
       750          375.000000         0.039605353        10.230156597        -1.897999159        -1.860984698         0.005216660
       760          380.000000         0.039560317        10.218523606        -1.898015386        -1.860984692         0.005142281
       770          385.000000         0.039610524        10.231492323        -1.898038795        -1.860984693         0.005053844
       780          390.000000         0.039605576        10.230214159        -1.898070418        -1.860984693         0.004956760
       790          395.000000         0.039689249        10.251827222        -1.898111015        -1.860984693         0.004864278
       800          400.000000         0.039794125        10.278916845        -1.898160736        -1.860984696         0.004733251
       810          405.000000         0.039846337        10.292403406        -1.898219465        -1.860984692         0.004640517
       820          410.000000         0.039870350        10.298606022        -1.898287015        -1.860984690         0.004574994
       830          415.000000         0.040070245        10.350239348        -1.898363045        -1.860984692         0.004570866
       840          420.000000         0.040197322        10.383063574        -1.898446612        -1.860984692         0.004581407
       850          425.000000         0.040314745        10.413394070        -1.898536751        -1.860984698         0.004559634
       860          430.000000         0.040289784        10.406946826        -1.898632333        -1.860984695         0.004556088
       870          435.000000         0.040568998        10.479068428        -1.898732560        -1.860984696         0.004544737
       880          440.000000         0.040795082        10.537466265        -1.898836132        -1.860984695         0.004563261
       890          445.000000         0.040851618        10.552069889        -1.898941521        -1.860984697         0.004545396
       900          450.000000         0.041128204        10.623512701        -1.899047695        -1.860984692         0.004564254
       910          455.000000         0.041283732        10.663685806        -1.899153193        -1.860984688         0.004542342
       920          460.000000         0.041297627        10.667274875        -1.899256373        -1.860984687         0.004571257
       930          465.000000         0.041390534        10.691273055        -1.899356560        -1.860984681         0.004533295
       940          470.000000         0.041438005        10.703534958        -1.899453149        -1.860984680         0.005091425
       950          475.000000         0.041583672        10.741161136        -1.899545148        -1.860984681         0.005139655
       960          480.000000         0.041635588        10.754571028        -1.899632105        -1.860984681         0.005143884
       970          485.000000         0.041765004        10.787999598        -1.899713611        -1.860984682         0.005108758
       980          490.000000         0.041951406        10.836147577        -1.899789376        -1.860984681         0.005007537
       990          495.000000         0.042011306        10.851619861        -1.899858826        -1.860984683         0.004638093
      1000          500.000000         0.042187914        10.897238234        -1.899921994        -1.860984679         0.003910174
      1010          505.000000         0.042255642        10.914732504        -1.899978812        -1.860984682         0.003796157
      1020          510.000000         0.042433026        10.960551110        -1.900029403        -1.860984678         0.003704456
      1030          515.000000         0.042510573        10.980581855        -1.900074093        -1.860984673         0.003641287
      1040          520.000000         0.042588027        11.000588377        -1.900113374        -1.860984671         0.003657328
      1050          525.000000         0.042611184        11.006569792        -1.900147676        -1.860984664         0.003642730
      1060          530.000000         0.042759173        11.044795785        -1.900177825        -1.860984663         0.003644063
      1070          535.000000         0.042814497        11.059086073        -1.900204176        -1.860984663         0.003692916
      1080          540.000000         0.042903803        11.082154114        -1.900227670        -1.860984662         0.003643532
      1090          545.000000         0.042966756        11.098414815        -1.900248965        -1.860984664         0.004571918
      1100          550.000000         0.043030890        11.114980884        -1.900268750        -1.860984665         0.004545969
      1110          555.000000         0.043050136        11.119952126        -1.900287857        -1.860984668         0.004635468
      1120          560.000000         0.043002495        11.107646285        -1.900307196        -1.860984660         0.004532534
      1130          565.000000         0.043100545        11.132973047        -1.900327571        -1.860984653         0.004572288
      1140          570.000000         0.043196996        11.157886487        -1.900349853        -1.860984651         0.004546761
      1150          575.000000         0.043229597        11.166307355        -1.900374605        -1.860984649         0.004567838
      1160          580.000000         0.043229072        11.166171728        -1.900402104        -1.860984651         0.004563461
      1170          585.000000         0.043221767        11.164284788        -1.900433068        -1.860984651         0.004552742
      1180          590.000000         0.043402613        11.210997903        -1.900468270        -1.860984649         0.004539106
      1190          595.000000         0.043416021        11.214461263        -1.900507776        -1.860984649         0.004515273
      1200          600.000000         0.043564147        11.252722343        -1.900551872        -1.860984650         0.004610419
      1210          605.000000         0.043728124        11.295077957        -1.900600305        -1.860984652         0.004519618
      1220          610.000000         0.043765858        11.304824816        -1.900653189        -1.860984660         0.004498399
      1230          615.000000         0.043966416        11.356629432        -1.900710585        -1.860984662         0.004512696
      1240          620.000000         0.044011651        11.368313772        -1.900772273        -1.860984652         0.004489863
      1250          625.000000         0.044169511        11.409089296        -1.900837750        -1.860984648         0.004510201
      1260          630.000000         0.044241586        11.427706490        -1.900906509        -1.860984647         0.004510762
      1270          635.000000         0.044405019        11.469921666        -1.900978263        -1.860984653         0.004477911
      1280          640.000000         0.044496454        11.493539655        -1.901052397        -1.860984663         0.006094210
      1290          645.000000         0.044651523        11.533594123        -1.901128179        -1.860984667         0.006071588
      1300          650.000000         0.044920751        11.603136568        -1.901204354        -1.860984663         0.006102035
      1310          655.000000         0.045049029        11.636271097        -1.901279969        -1.860984661         0.006075225
      1320          660.000000         0.045086631        11.645983789        -1.901353810        -1.860984658         0.006071086
      1330          665.000000         0.045282095        11.696472570        -1.901425179        -1.860984661         0.006058674
      1340          670.000000         0.045297856        11.700543532        -1.901492829        -1.860984662         0.006091365
      1350          675.000000         0.045331475        11.709227374        -1.901555897        -1.860984656         0.006318312
      1360          680.000000         0.045387941        11.723812653        -1.901613705        -1.860984656         0.006091677
      1370          685.000000         0.045526144        11.759510956        -1.901665152        -1.860984657         0.006089482
      1380          690.000000         0.045574000        11.771872236        -1.901708989        -1.860984657         0.006082889
      1390          695.000000         0.045859904        11.845721907        -1.901744545        -1.860984660         0.006104109
      1400          700.000000         0.046029076        11.889419326        -1.901770493        -1.860984664         0.006110760
      1410          705.000000         0.046082892        11.903320128        -1.901785671        -1.860984668         0.006101144
      1420          710.000000         0.046130764        11.915685806        -1.901789411        -1.860984671         0.006062421
      1430          715.000000         0.046128016        11.914975842        -1.901780884        -1.860984676         0.006081776
      1440          720.000000         0.046207007        11.935379457        -1.901759581        -1.860984674         0.006093228
      1450          725.000000         0.046191671        11.931418201        -1.901724981        -1.860984671         0.006115350
      1460          730.000000         0.046304465        11.960553190        -1.901676879        -1.860984667         0.006039226
      1470          735.000000         0.046224502        11.939898484        -1.901614722        -1.860984666         0.005800718
      1480          740.000000         0.046152886        11.921399956        -1.901538553        -1.860984662         0.005537134
      1490          745.000000         0.046046887        11.894020052        -1.901448751        -1.860984664         0.005347796
      1500          750.000000         0.045987719        11.878736952        -1.901345349        -1.860984662         0.005107725
      1510          755.000000         0.045942593        11.867080643        -1.901228586        -1.860984668         0.004944268
      1520          760.000000         0.045951561        11.869397219        -1.901098666        -1.860984666         0.004777364
      1530          765.000000         0.045781347        11.825430497        -1.900955965        -1.860984669         0.004620790
      1540          770.000000         0.045637910        11.788380388        -1.900801551        -1.860984668         0.004480556
      1550          775.000000         0.045396764        11.726091839        -1.900635966        -1.860984658         0.003604358
      1560          780.000000         0.045221200        11.680743230        -1.900460279        -1.860984656         0.003596172
      1570          785.000000         0.044923696        11.603897292        -1.900275354        -1.860984656         0.003643894
      1580          790.000000         0.044858599        11.587082362        -1.900082060        -1.860984664         0.003612993
      1590          795.000000         0.044641926        11.531115384        -1.899881186        -1.860984666         0.003597545
      1600          800.000000         0.044283290        11.438478853        -1.899673689        -1.860984666         0.003600551
      1610          805.000000         0.044034560        11.374231267        -1.899461023        -1.860984669         0.003594850
      1620          810.000000         0.043859358        11.328976037        -1.899244038        -1.860984663         0.003575474
      1630          815.000000         0.043652898        11.275646996        -1.899023664        -1.860984659         0.003588278
      1640          820.000000         0.043542522        11.247136761        -1.898800688        -1.860984659         0.003598587
      1650          825.000000         0.043292868        11.182650540        -1.898575675        -1.860984655         0.003587406
      1660          830.000000         0.043041527        11.117728531        -1.898349956        -1.860984654         0.003617773
      1670          835.000000         0.042751072        11.042703292        -1.898124299        -1.860984657         0.003591224
      1680          840.000000         0.042625884        11.010366801        -1.897899693        -1.860984653         0.003607013
      1690          845.000000         0.042511626        10.980853645        -1.897676875        -1.860984654         0.003601382
      1700          850.000000         0.042247309        10.912580076        -1.897456201        -1.860984652         0.003600601
      1710          855.000000         0.042093094        10.872746030        -1.897238802        -1.860984658         0.003617913
      1720          860.000000         0.041996770        10.847865263        -1.897025430        -1.860984651         0.003600100
      1730          865.000000         0.041833787        10.805766294        -1.896816495        -1.860984647         0.003579412
      1740          870.000000         0.041815195        10.800964009        -1.896612522        -1.860984649         0.003577810
      1750          875.000000         0.041567911        10.737090047        -1.896413864        -1.860984644         0.003593518
      1760          880.000000         0.041376108        10.687546667        -1.896221222        -1.860984647         0.003591965
      1770          885.000000         0.041351890        10.681291165        -1.896035196        -1.860984651         0.003579361
      1780          890.000000         0.041250085        10.654994762        -1.895856113        -1.860984653         0.003636247
      1790          895.000000         0.040999539        10.590278193        -1.895684376        -1.860984650         0.003596173
      1800          900.000000         0.040824458        10.545054231        -1.895520652        -1.860984651         0.003576516
      1810          905.000000         0.040923130        10.570541414        -1.895365074        -1.860984647         0.003581926
      1820          910.000000         0.040880631        10.559563960        -1.895217279        -1.860984642         0.003599861
      1830          915.000000         0.040829492        10.546354643        -1.895077623        -1.860984643         0.003563682
      1840          920.000000         0.040729069        10.520415185        -1.894945881        -1.860984642         0.003531631
      1850          925.000000         0.040616768        10.491407334        -1.894822063        -1.860984646         0.003547912
      1860          930.000000         0.040496020        10.460217967        -1.894706029        -1.860984649         0.003557310
      1870          935.000000         0.040322074        10.415287183        -1.894597833        -1.860984643         0.003546770
      1880          940.000000         0.040243081        10.394883192        -1.894497353        -1.860984651         0.003582157
      1890          945.000000         0.040173447        10.376896482        -1.894404382        -1.860984650         0.003525008
      1900          950.000000         0.040170046        10.376018072        -1.894318369        -1.860984657         0.003525069
      1910          955.000000         0.040225480        10.390336941        -1.894238821        -1.860984658         0.003542691
      1920          960.000000         0.040159243        10.373227779        -1.894164969        -1.860984661         0.003546771
      1930          965.000000         0.040111157        10.360806842        -1.894096350        -1.860984664         0.003539837
      1940          970.000000         0.039961974        10.322272736        -1.894032438        -1.860984658         0.003542352
      1950          975.000000         0.040020551        10.337403275        -1.893972999        -1.860984667         0.003559384
      1960          980.000000         0.040039953        10.342414833        -1.893917132        -1.860984664         0.003521812
      1970          985.000000         0.039961915        10.322257476        -1.893864236        -1.860984663         0.003561548
      1980          990.000000         0.039786135        10.276853081        -1.893814090        -1.860984666         0.003561678
      1990          995.000000         0.039779184        10.275057513        -1.893766196        -1.860984667         0.003546639
      2000         1000.000000         0.039856587        10.295050878        -1.893719872        -1.860984664         0.003548353
      2010         1005.000000         0.039799653        10.280344643        -1.893674645        -1.860984660         0.003567738
      2020         1010.000000         0.039814857        10.284271828        -1.893629830        -1.860984661         0.003543834
      2030         1015.000000         0.039852833        10.294081132        -1.893585222        -1.860984668         0.003558473
      2040         1020.000000         0.039802287        10.281025198        -1.893539931        -1.860984668         0.003542352
      2050         1025.000000         0.039724344        10.260892232        -1.893493691        -1.860984662         0.003554324
      2060         1030.000000         0.039707710        10.256595719        -1.893445994        -1.860984662         0.003532323
      2070         1035.000000         0.039508394        10.205111726        -1.893396595        -1.860984661         0.003540178
      2080         1040.000000         0.039584415        10.224748107        -1.893345253        -1.860984662         0.003547451
      2090         1045.000000         0.039647121        10.240945346        -1.893291422        -1.860984657         0.003558362
      2100         1050.000000         0.039688652        10.251672873        -1.893234687        -1.860984656         0.003535429
      2110         1055.000000         0.039695223        10.253370080        -1.893174448        -1.860984661         0.003550688
      2120         1060.000000         0.039632563        10.237184887        -1.893110421        -1.860984659         0.003538985
      2130         1065.000000         0.039551339        10.216204583        -1.893042511        -1.860984655         0.003549104
      2140         1070.000000         0.039460533        10.192749271        -1.892970735        -1.860984657         0.003540328
      2150         1075.000000         0.039487352        10.199676694        -1.892894602        -1.860984655         0.003545146
      2160         1080.000000         0.039415101        10.181013934        -1.892814024        -1.860984650         0.003549393
      2170         1085.000000         0.039331294        10.159366427        -1.892729068        -1.860984661         0.003545877
      2180         1090.000000         0.039143534        10.110867658        -1.892639937        -1.860984664         0.003589490
      2190         1095.000000         0.039290538        10.148839136        -1.892546785        -1.860984664         0.003545207
      2200         1100.000000         0.039349427        10.164050327        -1.892449352        -1.860984667         0.003548764
      2210         1105.000000         0.039385380        10.173337109        -1.892347465        -1.860984667         0.003553211
      2220         1110.000000         0.039293188        10.149523514        -1.892241022        -1.860984672         0.003542772
      2230         1115.000000         0.039200836        10.125668956        -1.892130264        -1.860984666         0.003577547
      2240         1120.000000         0.039004891        10.075055774        -1.892015833        -1.860984663         0.003536160
      2250         1125.000000         0.038800884        10.022360193        -1.891898215        -1.860984663         0.003559003
      2260         1130.000000         0.038661987         9.986482776        -1.891778038        -1.860984667         0.003562529
      2270         1135.000000         0.038617793         9.975067472        -1.891655898        -1.860984670         0.003556757