 DBCSR| CPU Multiplication driver                                           BLAS (U)
 DBCSR| Multrec recursion limit                                              512 (U)
 DBCSR| Multiplication stack size                                           1000 (D)
 DBCSR| Maximum elements for images                                    UNLIMITED (U)
 DBCSR| Multiplicative factor virtual images                                   1 (U)
 DBCSR| Use multiplication densification                                       T (D)
 DBCSR| Multiplication size stacks                                             3 (U)
 DBCSR| Use memory pool for CPU allocation                                     F (U)
 DBCSR| OMP: Current number of threads                                         1
 DBCSR| OMP: Max number of threads                                             1
 DBCSR| Split modifier for TAS multiplication algorithm                  1.0E+00 (U)


  **** **** ******  **  PROGRAM STARTED AT               2023-04-05 11:06:57.443
 ***** ** ***  *** **   PROGRAM STARTED ON                            eu-a2p-294
 **    ****   ******    PROGRAM STARTED BY                             jbachmann
 ***** **    ** ** **   PROGRAM PROCESS ID                                 84847
  **** **  *******  **  PROGRAM STARTED IN /cluster/home/jbachmann/Molecular-and
                                           -Materials-Modelling-FS2023/exercise7
                                           /PBE/TZVP

 CP2K| version string:                 CP2K version 2023.1 (Development Version)
 CP2K| source code revision number:                                  git:dc34ec9
 CP2K| cp2kflags: omp libint fftw3 libxc max_contr=4 spglib libvori libbqb      
 CP2K| is freely available from                            https://www.cp2k.org/
 CP2K| Program compiled at                         Mon Mar 27 23:22:21 CEST 2023
 CP2K| Program compiled on                                           eu-g5-025-4
 CP2K| Program compiled for                              Linux-gnu-x86_64-static
 CP2K| Data directory path      /cluster/apps/nss/gcc-6.3.0/cp2k/8.2/x86_64/data
 CP2K| Input file name                                               ethanol.inp

 GLOBAL| Force Environment number                                              1
 GLOBAL| Basis set file name                                        BASIS_MOLOPT
 GLOBAL| Potential file name                                      GTH_POTENTIALS
 GLOBAL| MM Potential file name                                     MM_POTENTIAL
 GLOBAL| Coordinate file name                                  ../../ethanol.xyz
 GLOBAL| Method name                                                        CP2K
 GLOBAL| Project name                                                    ethanol
 GLOBAL| Run type                                                        GEO_OPT
 GLOBAL| FFT library                                                       FFTW3
 GLOBAL| Diagonalization library                                       ScaLAPACK
 GLOBAL| DGEMM library                                                      BLAS
 GLOBAL| Orthonormality check for eigenvectors                          DISABLED
 GLOBAL| Matrix multiplication library                                 ScaLAPACK
 GLOBAL| All-to-all communication in single precision                          F
 GLOBAL| FFTs using library dependent lengths                                  F
 GLOBAL| Grid backend                                                       AUTO
 GLOBAL| Global print level                                                  LOW
 GLOBAL| MPI I/O enabled                                                       T
 GLOBAL| Total number of message passing processes                             1
 GLOBAL| Number of threads for this process                                    1
 GLOBAL| This output is from process                                           0
 GLOBAL| Stack size for threads created by OpenMP (OMP_STACKSIZE)        default
 GLOBAL| CPU model name                          AMD EPYC 7763 64-Core Processor

 MEMORY| system memory details [Kb]
 MEMORY|                        rank 0           min           max       average
 MEMORY| MemTotal            261505412     261505412     261505412     261505412
 MEMORY| MemFree             244105744     244105744     244105744     244105744
 MEMORY| Buffers                  1052          1052          1052          1052
 MEMORY| Cached                8047568       8047568       8047568       8047568
 MEMORY| Slab                  1513988       1513988       1513988       1513988
 MEMORY| SReclaimable           442800        442800        442800        442800
 MEMORY| MemLikelyFree       252597164     252597164     252597164     252597164


 GENERATE|  Preliminary Number of Bonds generated:                             0
 GENERATE|  Achieved consistency in connectivity generation.

 *******************************************************************************
 *******************************************************************************
 **                                                                           **
 **     #####                         ##              ##                      **
 **    ##   ##            ##          ##              ##                      **
 **   ##     ##                       ##            ######                    **
 **   ##     ##  ##   ##  ##   #####  ##  ##   ####   ##    #####    #####    **
 **   ##     ##  ##   ##  ##  ##      ## ##   ##      ##   ##   ##  ##   ##   **
 **   ##  ## ##  ##   ##  ##  ##      ####     ###    ##   ######   ######    **
 **    ##  ###   ##   ##  ##  ##      ## ##      ##   ##   ##       ##        **
 **     #######   #####   ##   #####  ##  ##  ####    ##    #####   ##        **
 **           ##                                                    ##        **
 **                                                                           **
 **                                                ... make the atoms dance   **
 **                                                                           **
 **            Copyright (C) by CP2K developers group (2000-2023)             **
 **                      J. Chem. Phys. 152, 194103 (2020)                    **
 **                                                                           **
 *******************************************************************************


 TOTAL NUMBERS AND MAXIMUM NUMBERS

  Total number of            - Atomic kinds:                                   3
                             - Atoms:                                          9
                             - Shell sets:                                     9
                             - Shells:                                        45
                             - Primitive Cartesian functions:                 63
                             - Cartesian basis functions:                     90
                             - Spherical basis functions:                     87

  Maximum angular momentum of- Orbital basis functions:                        2
                             - Local part of the GTH pseudopotential:          2
                             - Non-local part of the GTH pseudopotential:      0


 SCF PARAMETERS         Density guess:                                   RESTART
                        --------------------------------------------------------
                        max_scf:                                              50
                        max_scf_history:                                       0
                        max_diis:                                              4
                        --------------------------------------------------------
                        eps_scf:                                        1.00E-04
                        eps_scf_history:                                0.00E+00
                        eps_diis:                                       1.00E-01
                        eps_eigval:                                     1.00E-05
                        --------------------------------------------------------
                        level_shift [a.u.]:                             0.000000
                        --------------------------------------------------------
                        Outer loop SCF in use 
                        No variables optimised in outer loop
                        eps_scf                                         1.00E-04
                        max_scf                                              500
                        No outer loop optimization
                        step_size                                       5.00E-01

 PW_GRID| Information for grid number                                          1
 PW_GRID| Cutoff [a.u.]                                                    200.0
 PW_GRID| spherical cutoff:                                                   NO
 PW_GRID|   Bounds   1            -96      95                Points:         192
 PW_GRID|   Bounds   2            -96      95                Points:         192
 PW_GRID|   Bounds   3            -96      95                Points:         192
 PW_GRID| Volume element (a.u.^3)  0.3218E-02     Volume (a.u.^3)     22775.6292
 PW_GRID| Grid span                                                    FULLSPACE

 PW_GRID| Information for grid number                                          2
 PW_GRID| Number of the reference grid                                         1
 PW_GRID| Cutoff [a.u.]                                                     66.7
 PW_GRID| spherical cutoff:                                                   NO
 PW_GRID|   Bounds   1            -54      53                Points:         108
 PW_GRID|   Bounds   2            -54      53                Points:         108
 PW_GRID|   Bounds   3            -54      53                Points:         108
 PW_GRID| Volume element (a.u.^3)  0.1808E-01     Volume (a.u.^3)     22775.6292
 PW_GRID| Grid span                                                    FULLSPACE

 PW_GRID| Information for grid number                                          3
 PW_GRID| Number of the reference grid                                         1
 PW_GRID| Cutoff [a.u.]                                                     22.2
 PW_GRID| spherical cutoff:                                                   NO
 PW_GRID|   Bounds   1            -32      31                Points:          64
 PW_GRID|   Bounds   2            -32      31                Points:          64
 PW_GRID|   Bounds   3            -32      31                Points:          64
 PW_GRID| Volume element (a.u.^3)  0.8688E-01     Volume (a.u.^3)     22775.6292
 PW_GRID| Grid span                                                    FULLSPACE

 PW_GRID| Information for grid number                                          4
 PW_GRID| Number of the reference grid                                         1
 PW_GRID| Cutoff [a.u.]                                                      7.4
 PW_GRID| spherical cutoff:                                                   NO
 PW_GRID|   Bounds   1            -18      17                Points:          36
 PW_GRID|   Bounds   2            -18      17                Points:          36
 PW_GRID|   Bounds   3            -18      17                Points:          36
 PW_GRID| Volume element (a.u.^3)  0.4882         Volume (a.u.^3)     22775.6292
 PW_GRID| Grid span                                                    FULLSPACE

 POISSON| Solver                                                         WAVELET
 POISSON| Wavelet| Scaling function                                           40
 POISSON| Periodicity                                                       NONE

 RS_GRID| Information for grid number                                          1
 RS_GRID|   Bounds   1            -96      95                Points:         192
 RS_GRID|   Bounds   2            -96      95                Points:         192
 RS_GRID|   Bounds   3            -96      95                Points:         192

 RS_GRID| Information for grid number                                          2
 RS_GRID|   Bounds   1            -54      53                Points:         108
 RS_GRID|   Bounds   2            -54      53                Points:         108
 RS_GRID|   Bounds   3            -54      53                Points:         108

 RS_GRID| Information for grid number                                          3
 RS_GRID|   Bounds   1            -32      31                Points:          64
 RS_GRID|   Bounds   2            -32      31                Points:          64
 RS_GRID|   Bounds   3            -32      31                Points:          64

 RS_GRID| Information for grid number                                          4
 RS_GRID|   Bounds   1            -18      17                Points:          36
 RS_GRID|   Bounds   2            -18      17                Points:          36
 RS_GRID|   Bounds   3            -18      17                Points:          36

 BFGS| Use rational function optimization for step estimation:                NO
 BFGS| Use model Hessian for initial guess:                                  YES
 BFGS| Restart Hessian:                                                       NO
 BFGS| Trust radius:                                                       0.472

 *******************************************************************************
 ***                     STARTING GEOMETRY OPTIMIZATION                      ***
 ***                                   BFGS                                  ***
 *******************************************************************************

 Number of electrons:                                                         20
 Number of occupied orbitals:                                                 10
 Number of molecular orbitals:                                                10

 Number of orbital functions:                                                 87
 Number of independent orbital functions:                                     87

 Extrapolation method: initial_guess

 *** WARNING in qs_initial_guess.F:305 :: User requested to restart the    ***
 *** wavefunction from the file named: ethanol-RESTART.wfn. This file does ***
 *** not exist. Please check the existence of the file or change properly  ***
 *** the value of the keyword WFN_RESTART_FILE_NAME. Calculation continues ***
 *** using ATOMIC GUESS.                                                   ***



 SCF WAVEFUNCTION OPTIMIZATION

  ----------------------------------- OT ---------------------------------------
  Minimizer      : DIIS                : direct inversion
                                         in the iterative subspace
                                         using   7 DIIS vectors
                                         safer DIIS on
  Preconditioner : FULL_SINGLE_INVERSE : inversion of 
                                         H + eS - 2*(Sc)(c^T*H*c+const)(Sc)^T
  Precond_solver : DEFAULT
  stepsize       :    0.08000000                  energy_gap     :    0.08000000
  eps_taylor     :   0.10000E-15                  max_taylor     :             4
  ----------------------------------- OT ---------------------------------------

  Step     Update method      Time    Convergence         Total energy    Change
  ------------------------------------------------------------------------------
     1 OT DIIS     0.80E-01    9.2     0.17832475       -28.9958799724 -2.90E+01
     2 OT DIIS     0.80E-01    8.0     0.16260249       -30.0755525299 -1.08E+00
     3 OT DIIS     0.80E-01    8.0     0.07089475       -30.6935223983 -6.18E-01
     4 OT DIIS     0.80E-01    7.8     0.05568410       -30.8548323680 -1.61E-01
     5 OT DIIS     0.80E-01    7.9     0.01909447       -30.9306980529 -7.59E-02
     6 OT DIIS     0.80E-01    7.8     0.00972743       -30.9610017620 -3.03E-02
     7 OT DIIS     0.80E-01    7.8     0.00590107       -30.9676168556 -6.62E-03
     8 OT DIIS     0.80E-01    7.8     0.00322356       -30.9694012194 -1.78E-03
     9 OT DIIS     0.80E-01    7.8     0.00187507       -30.9704876644 -1.09E-03
    10 OT DIIS     0.80E-01    7.8     0.00124953       -30.9708458488 -3.58E-04
    11 OT DIIS     0.80E-01    7.7     0.00071072       -30.9710233736 -1.78E-04
    12 OT DIIS     0.80E-01    7.8     0.00052265       -30.9710667876 -4.34E-05
    13 OT DIIS     0.80E-01    7.7     0.00033766       -30.9710941029 -2.73E-05
    14 OT DIIS     0.80E-01    7.8     0.00018756       -30.9711082884 -1.42E-05
    15 OT DIIS     0.80E-01    7.8     0.00010876       -30.9711131415 -4.85E-06
    16 OT DIIS     0.80E-01    7.5     0.00006501       -30.9711147277 -1.59E-06

  *** SCF run converged in    16 steps ***


  Electronic density on regular grids:        -19.5502508359        0.4497491641
  Core density on regular grids:               20.0000000000       -0.0000000000
  Hard and soft densities (Lebedev):         -395.5111880909     -395.0614393163
  Total Rho_soft + Rho1_hard - Rho1_soft      -19.9999996104
  Total charge density (r-space):               0.0000003896
  Total Rho_soft + Rho0_soft (g-space):         0.0000003228

  Overlap energy of the core charge distribution:               0.00000139242905
  Self energy of the core charge distribution:                -76.65906668574564
  Core Hamiltonian energy:                                     23.32452813431633
  Hartree energy:                                              45.29197204902471
  Exchange-correlation energy:                                 -8.75896262148244

  GAPW| Exc from hard and soft atomic rho1:                    -0.41925146393735
  GAPW| local Eh = 1 center integrals:                        -13.75033553227347

  Total energy:                                               -30.97111472766881

  outer SCF iter =    1 RMS gradient =   0.65E-04 energy =        -30.9711147277
  outer SCF loop converged in   1 iterations or   16 steps

  
  Eigenvalues of the occupied subspace spin            1
 ---------------------------------------------
      -0.93215383     -0.67929107     -0.54967694     -0.46621106
      -0.41389525     -0.35650111     -0.33878932     -0.31915094
      -0.28726126     -0.22498588
 Fermi Energy [eV] :   -6.122177
  
  Lowest Eigenvalues of the unoccupied subspace spin            1
 -----------------------------------------------------
 OT| Eigensolver reached convergence in 55 iterations
       0.02160593
  
 HOMO - LUMO gap [eV] :    6.710105

 ENERGY| Total FORCE_EVAL ( QS ) energy [a.u.]:              -30.971115264772571

 --------  Informations at step =     0 ------------
  Optimization Method        =                 BFGS
  Total Energy               =       -30.9711152648
  Used time                  =              137.865
 ---------------------------------------------------

 --------------------------
 OPTIMIZATION STEP:      1
 --------------------------

 Number of electrons:                                                         20
 Number of occupied orbitals:                                                 10
 Number of molecular orbitals:                                                10

 Number of orbital functions:                                                 87
 Number of independent orbital functions:                                     87

 Extrapolation method: ASPC


 SCF WAVEFUNCTION OPTIMIZATION

  ----------------------------------- OT ---------------------------------------
  Minimizer      : DIIS                : direct inversion
                                         in the iterative subspace
                                         using   7 DIIS vectors
                                         safer DIIS on
  Preconditioner : FULL_SINGLE_INVERSE : inversion of 
                                         H + eS - 2*(Sc)(c^T*H*c+const)(Sc)^T
  Precond_solver : DEFAULT
  stepsize       :    0.08000000                  energy_gap     :    0.08000000
  eps_taylor     :   0.10000E-15                  max_taylor     :             4
  ----------------------------------- OT ---------------------------------------

  Step     Update method      Time    Convergence         Total energy    Change
  ------------------------------------------------------------------------------
     1 OT DIIS     0.80E-01    7.0     0.00105554       -30.9712140009 -3.10E+01
     2 OT DIIS     0.80E-01    7.4     0.00064655       -30.9712756929 -6.17E-05
     3 OT DIIS     0.80E-01    8.1     0.00019069       -30.9713144250 -3.87E-05
     4 OT DIIS     0.80E-01    7.4     0.00005134       -30.9713180232 -3.60E-06

  *** SCF run converged in     4 steps ***


  Electronic density on regular grids:        -19.5537057204        0.4462942796
  Core density on regular grids:               20.0000000000       -0.0000000000
  Hard and soft densities (Lebedev):         -392.5667570197     -392.1204631242
  Total Rho_soft + Rho1_hard - Rho1_soft      -19.9999996159
  Total charge density (r-space):               0.0000003841
  Total Rho_soft + Rho0_soft (g-space):         0.0000003172

  Overlap energy of the core charge distribution:               0.00000124679927
  Self energy of the core charge distribution:                -76.65906668574564
  Core Hamiltonian energy:                                     23.28045282393773
  Hartree energy:                                              45.33232091408578
  Exchange-correlation energy:                                 -8.74954816267033

  GAPW| Exc from hard and soft atomic rho1:                    -0.41585029114691
  GAPW| local Eh = 1 center integrals:                        -13.75962786850291

  Total energy:                                               -30.97131802324302

  outer SCF iter =    1 RMS gradient =   0.51E-04 energy =        -30.9713180232
  outer SCF loop converged in   1 iterations or    4 steps

  
  Eigenvalues of the occupied subspace spin            1
 ---------------------------------------------
      -0.93115963     -0.67828827     -0.54779011     -0.46477145
      -0.41288718     -0.35609460     -0.33785234     -0.31812548
      -0.28974083     -0.22602478
 Fermi Energy [eV] :   -6.150447
  
  Lowest Eigenvalues of the unoccupied subspace spin            1
 -----------------------------------------------------
 OT| Eigensolver reached convergence in 51 iterations
       0.02035740
  
 HOMO - LUMO gap [eV] :    6.704400

 ENERGY| Total FORCE_EVAL ( QS ) energy [a.u.]:              -30.971318254806469

 --------  Informations at step =     1 ------------
  Optimization Method        =                 BFGS
  Total Energy               =       -30.9713182548
  Real energy change         =        -0.0002029900
  Predicted change in energy =        -0.0002090547
  Scaling factor             =         0.0000000000
  Step size                  =         0.0274087734
  Trust radius               =         0.4724315332
  Decrease in energy         =                  YES
  Used time                  =               42.805

  Convergence check :
  Max. step size             =         0.0274087734
  Conv. limit for step size  =         0.0100000000
  Convergence in step size   =                   NO
  RMS step size              =         0.0072977276
  Conv. limit for RMS step   =         0.0030000000
  Convergence in RMS step    =                   NO
  Max. gradient              =         0.0048540158
  Conv. limit for gradients  =         0.0010000000
  Conv. for gradients        =                   NO
  RMS gradient               =         0.0011918756
  Conv. limit for RMS grad.  =         0.0003000000
  Conv. for gradients        =                   NO
 ---------------------------------------------------
 Estimated peak process memory after this step [MiB]                        1795

 --------------------------
 OPTIMIZATION STEP:      2
 --------------------------

 Number of electrons:                                                         20
 Number of occupied orbitals:                                                 10
 Number of molecular orbitals:                                                10

 Number of orbital functions:                                                 87
 Number of independent orbital functions:                                     87

 Extrapolation method: ASPC


 SCF WAVEFUNCTION OPTIMIZATION

  ----------------------------------- OT ---------------------------------------
  Minimizer      : DIIS                : direct inversion
                                         in the iterative subspace
                                         using   7 DIIS vectors
                                         safer DIIS on
  Preconditioner : FULL_SINGLE_INVERSE : inversion of 
                                         H + eS - 2*(Sc)(c^T*H*c+const)(Sc)^T
  Precond_solver : DEFAULT
  stepsize       :    0.08000000                  energy_gap     :    0.08000000
  eps_taylor     :   0.10000E-15                  max_taylor     :             4
  ----------------------------------- OT ---------------------------------------

  Step     Update method      Time    Convergence         Total energy    Change
  ------------------------------------------------------------------------------
     1 OT DIIS     0.80E-01    6.7     0.00121172       -30.9712147748 -3.10E+01
     2 OT DIIS     0.80E-01    7.3     0.00076805       -30.9712972696 -8.25E-05
     3 OT DIIS     0.80E-01    7.3     0.00021951       -30.9713539632 -5.67E-05
     4 OT DIIS     0.80E-01    7.6     0.00007531       -30.9713583893 -4.43E-06

  *** SCF run converged in     4 steps ***


  Electronic density on regular grids:        -19.5546979828        0.4453020172
  Core density on regular grids:               20.0000000000       -0.0000000000
  Hard and soft densities (Lebedev):         -390.0203372395     -389.5750356011
  Total Rho_soft + Rho1_hard - Rho1_soft      -19.9999996212
  Total charge density (r-space):               0.0000003788
  Total Rho_soft + Rho0_soft (g-space):         0.0000003120

  Overlap energy of the core charge distribution:               0.00000115972317
  Self energy of the core charge distribution:                -76.65906668574564
  Core Hamiltonian energy:                                     23.25568363064009
  Hartree energy:                                              45.35260545727454
  Exchange-correlation energy:                                 -8.74295814200013

  GAPW| Exc from hard and soft atomic rho1:                    -0.41493809681591
  GAPW| local Eh = 1 center integrals:                        -13.76268571239322

  Total energy:                                               -30.97135838931711

  outer SCF iter =    1 RMS gradient =   0.75E-04 energy =        -30.9713583893
  outer SCF loop converged in   1 iterations or    4 steps

  
  Eigenvalues of the occupied subspace spin            1
 ---------------------------------------------
      -0.92871179     -0.67799331     -0.54703021     -0.46323982
      -0.41239852     -0.35531192     -0.33828269     -0.31841970
      -0.28891329     -0.22516079
 Fermi Energy [eV] :   -6.126937
  
  Lowest Eigenvalues of the unoccupied subspace spin            1
 -----------------------------------------------------
 OT| Eigensolver reached convergence in 49 iterations
       0.01986571
  
 HOMO - LUMO gap [eV] :    6.667510

 ENERGY| Total FORCE_EVAL ( QS ) energy [a.u.]:              -30.971358853193664

 --------  Informations at step =     2 ------------
  Optimization Method        =                 BFGS
  Total Energy               =       -30.9713588532
  Real energy change         =        -0.0000405984
  Predicted change in energy =        -0.0000720335
  Scaling factor             =         0.0000000000
  Step size                  =         0.0136420212
  Trust radius               =         0.4724315332
  Decrease in energy         =                  YES
  Used time                  =               41.702

  Convergence check :
  Max. step size             =         0.0136420212
  Conv. limit for step size  =         0.0100000000
  Convergence in step size   =                   NO
  RMS step size              =         0.0058509999
  Conv. limit for RMS step   =         0.0030000000
  Convergence in RMS step    =                   NO
  Max. gradient              =         0.0017116171
  Conv. limit for gradients  =         0.0010000000
  Conv. for gradients        =                   NO
  RMS gradient               =         0.0006513558
  Conv. limit for RMS grad.  =         0.0003000000
  Conv. for gradients        =                   NO
 ---------------------------------------------------
 Estimated peak process memory after this step [MiB]                        1795

 --------------------------
 OPTIMIZATION STEP:      3
 --------------------------

 Number of electrons:                                                         20
 Number of occupied orbitals:                                                 10
 Number of molecular orbitals:                                                10

 Number of orbital functions:                                                 87
 Number of independent orbital functions:                                     87

 Extrapolation method: ASPC


 SCF WAVEFUNCTION OPTIMIZATION

  ----------------------------------- OT ---------------------------------------
  Minimizer      : DIIS                : direct inversion
                                         in the iterative subspace
                                         using   7 DIIS vectors
                                         safer DIIS on
  Preconditioner : FULL_SINGLE_INVERSE : inversion of 
                                         H + eS - 2*(Sc)(c^T*H*c+const)(Sc)^T
  Precond_solver : DEFAULT
  stepsize       :    0.08000000                  energy_gap     :    0.08000000
  eps_taylor     :   0.10000E-15                  max_taylor     :             4
  ----------------------------------- OT ---------------------------------------

  Step     Update method      Time    Convergence         Total energy    Change
  ------------------------------------------------------------------------------
     1 OT DIIS     0.80E-01    6.8     0.00122722       -30.9712355735 -3.10E+01
     2 OT DIIS     0.80E-01    7.7     0.00074841       -30.9713180216 -8.24E-05
     3 OT DIIS     0.80E-01    7.3     0.00028124       -30.9713670577 -4.90E-05
     4 OT DIIS     0.80E-01    7.7     0.00009335       -30.9713744723 -7.41E-06

  *** SCF run converged in     4 steps ***


  Electronic density on regular grids:        -19.5544139579        0.4455860421
  Core density on regular grids:               20.0000000000       -0.0000000000
  Hard and soft densities (Lebedev):         -390.2446814195     -389.7990957553
  Total Rho_soft + Rho1_hard - Rho1_soft      -19.9999996221
  Total charge density (r-space):               0.0000003779
  Total Rho_soft + Rho0_soft (g-space):         0.0000003115

  Overlap energy of the core charge distribution:               0.00000118329514
  Self energy of the core charge distribution:                -76.65906668574564
  Core Hamiltonian energy:                                     23.26216988801781
  Hartree energy:                                              45.34719287624019
  Exchange-correlation energy:                                 -8.74461409441855

  GAPW| Exc from hard and soft atomic rho1:                    -0.41520333577837
  GAPW| local Eh = 1 center integrals:                        -13.76185430390420

  Total energy:                                               -30.97137447229363

  outer SCF iter =    1 RMS gradient =   0.93E-04 energy =        -30.9713744723
  outer SCF loop converged in   1 iterations or    4 steps

  
  Eigenvalues of the occupied subspace spin            1
 ---------------------------------------------
      -0.92896741     -0.67818153     -0.54734689     -0.46331490
      -0.41261032     -0.35566535     -0.33797539     -0.31823119
      -0.28917490     -0.22538118
 Fermi Energy [eV] :   -6.132934
  
  Lowest Eigenvalues of the unoccupied subspace spin            1
 -----------------------------------------------------
 OT| Eigensolver reached convergence in 49 iterations
       0.02004151
  
 HOMO - LUMO gap [eV] :    6.678291

 ENERGY| Total FORCE_EVAL ( QS ) energy [a.u.]:              -30.971375237786745

 --------  Informations at step =     3 ------------
  Optimization Method        =                 BFGS
  Total Energy               =       -30.9713752378
  Real energy change         =        -0.0000163846
  Predicted change in energy =        -0.0000150553
  Scaling factor             =         0.0000000000
  Step size                  =         0.0047059305
  Trust radius               =         0.4724315332
  Decrease in energy         =                  YES
  Used time                  =               41.032

  Convergence check :
  Max. step size             =         0.0047059305
  Conv. limit for step size  =         0.0100000000
  Convergence in step size   =                  YES
  RMS step size              =         0.0023400269
  Conv. limit for RMS step   =         0.0030000000
  Convergence in RMS step    =                  YES
  Max. gradient              =         0.0008921622
  Conv. limit for gradients  =         0.0010000000
  Conv. in gradients         =                  YES
  RMS gradient               =         0.0002432283
  Conv. limit for RMS grad.  =         0.0003000000
  Conv. in RMS gradients     =                  YES
 ---------------------------------------------------
 Estimated peak process memory after this step [MiB]                        1795

 *******************************************************************************
 ***                    GEOMETRY OPTIMIZATION COMPLETED                      ***
 *******************************************************************************

                    Reevaluating energy at the minimum

 Number of electrons:                                                         20
 Number of occupied orbitals:                                                 10
 Number of molecular orbitals:                                                10

 Number of orbital functions:                                                 87
 Number of independent orbital functions:                                     87

 Extrapolation method: ASPC


 SCF WAVEFUNCTION OPTIMIZATION

  ----------------------------------- OT ---------------------------------------
  Minimizer      : DIIS                : direct inversion
                                         in the iterative subspace
                                         using   7 DIIS vectors
                                         safer DIIS on
  Preconditioner : FULL_SINGLE_INVERSE : inversion of 
                                         H + eS - 2*(Sc)(c^T*H*c+const)(Sc)^T
  Precond_solver : DEFAULT
  stepsize       :    0.08000000                  energy_gap     :    0.08000000
  eps_taylor     :   0.10000E-15                  max_taylor     :             4
  ----------------------------------- OT ---------------------------------------

  Step     Update method      Time    Convergence         Total energy    Change
  ------------------------------------------------------------------------------
     1 OT DIIS     0.80E-01    7.0     0.00098065       -30.9712902291 -3.10E+01
     2 OT DIIS     0.80E-01    7.9     0.00057892       -30.9713422012 -5.20E-05
     3 OT DIIS     0.80E-01    7.8     0.00021381       -30.9713706029 -2.84E-05
     4 OT DIIS     0.80E-01    8.5     0.00007551       -30.9713747613 -4.16E-06

  *** SCF run converged in     4 steps ***


  Electronic density on regular grids:        -19.5545298460        0.4454701540
  Core density on regular grids:               20.0000000000       -0.0000000000
  Hard and soft densities (Lebedev):         -390.2419601053     -389.7964903291
  Total Rho_soft + Rho1_hard - Rho1_soft      -19.9999996222
  Total charge density (r-space):               0.0000003778
  Total Rho_soft + Rho0_soft (g-space):         0.0000003114

  Overlap energy of the core charge distribution:               0.00000118329514
  Self energy of the core charge distribution:                -76.65906668574564
  Core Hamiltonian energy:                                     23.26102839801135
  Hartree energy:                                              45.34845751875906
  Exchange-correlation energy:                                 -8.74448452723402

  GAPW| Exc from hard and soft atomic rho1:                    -0.41508375997235
  GAPW| local Eh = 1 center integrals:                        -13.76222688843145

  Total energy:                                               -30.97137476131790

  outer SCF iter =    1 RMS gradient =   0.76E-04 energy =        -30.9713747613
  outer SCF loop converged in   1 iterations or    4 steps

  
  Eigenvalues of the occupied subspace spin            1
 ---------------------------------------------
      -0.92903325     -0.67821447     -0.54740394     -0.46336400
      -0.41262949     -0.35571134     -0.33803068     -0.31827324
      -0.28921829     -0.22544081
 Fermi Energy [eV] :   -6.134557
  
  Lowest Eigenvalues of the unoccupied subspace spin            1
 -----------------------------------------------------
 OT| Eigensolver reached convergence in 53 iterations
       0.02001647
  
 HOMO - LUMO gap [eV] :    6.679232

 ENERGY| Total FORCE_EVAL ( QS ) energy [a.u.]:              -30.971374761317904

 -------------------------------------------------------------------------------
 -                                                                             -
 -                                DBCSR STATISTICS                             -
 -                                                                             -
 -------------------------------------------------------------------------------
 COUNTER                                    TOTAL       BLAS       SMM       ACC
 flops    10 x     1 x    10                 2000     100.0%      0.0%      0.0%
 flops     1 x     1 x     1                 2312     100.0%      0.0%      0.0%
 flops    10 x     1 x    87                17400     100.0%      0.0%      0.0%
 flops    87 x     1 x    10                17400     100.0%      0.0%      0.0%
 flops    11 x     1 x    11                31702     100.0%      0.0%      0.0%
 flops     6 x    10 x    10                36000     100.0%      0.0%      0.0%
 flops    17 x    10 x    10                51000     100.0%      0.0%      0.0%
 flops     1 x     1 x    87                86826     100.0%      0.0%      0.0%
 flops    87 x     1 x     1               135024     100.0%      0.0%      0.0%
 flops    11 x    11 x    87               210540     100.0%      0.0%      0.0%
 flops    11 x     1 x    87               250734     100.0%      0.0%      0.0%
 flops    87 x     1 x    11               250734     100.0%      0.0%      0.0%
 flops    10 x    10 x    10               436000     100.0%      0.0%      0.0%
 flops     6 x     6 x    10               695520     100.0%      0.0%      0.0%
 flops    17 x     6 x    10               844560     100.0%      0.0%      0.0%
 flops     6 x    17 x    10               844560     100.0%      0.0%      0.0%
 flops     6 x     1 x     6              1371168     100.0%      0.0%      0.0%
 flops    17 x    17 x    10              1595280     100.0%      0.0%      0.0%
 flops    87 x    11 x    87              1665180     100.0%      0.0%      0.0%
 flops    17 x     1 x     6              1942488     100.0%      0.0%      0.0%
 flops     6 x     1 x    17              1942488     100.0%      0.0%      0.0%
 flops    87 x     1 x    87              1983078     100.0%      0.0%      0.0%
 flops    10 x    10 x    87              2401200     100.0%      0.0%      0.0%
 flops    87 x    10 x    10              2697000     100.0%      0.0%      0.0%
 flops    17 x     1 x    17              2751858     100.0%      0.0%      0.0%
 flops     6 x    10 x     6              2877120     100.0%      0.0%      0.0%
 flops    17 x    10 x     6              4075920     100.0%      0.0%      0.0%
 flops     6 x    10 x    17              4075920     100.0%      0.0%      0.0%
 flops    87 x    10 x    87              5601060     100.0%      0.0%      0.0%
 flops    17 x    10 x    17              5774220     100.0%      0.0%      0.0%
 flops inhomo. stacks                           0       0.0%      0.0%      0.0%
 flops total                        44.666292E+06     100.0%      0.0%      0.0%
 flops max/rank                     44.666292E+06     100.0%      0.0%      0.0%
 matmuls inhomo. stacks                         0       0.0%      0.0%      0.0%
 matmuls total                              57508     100.0%      0.0%      0.0%
 number of processed stacks                  6307     100.0%      0.0%      0.0%
 average stack size                                     9.1       0.0       0.0
 marketing flops                    47.739648E+06
 -------------------------------------------------------------------------------
 # multiplications                           4269
 max memory usage/rank               1.824748E+09
 # max total images/rank                        1
 # max 3D layers                                1
 # MPI messages exchanged                       0
 -------------------------------------------------------------------------------

 -------------------------------------------------------------------------------
 -                                                                             -
 -                                DBM STATISTICS                               -
 -                                                                             -
 -------------------------------------------------------------------------------
    M  x    N  x    K                                          COUNT     PERCENT
 -------------------------------------------------------------------------------

 -------------------------------------------------------------------------------
 -                                                                             -
 -                                GRID STATISTICS                              -
 -                                                                             -
 -------------------------------------------------------------------------------
 LP    KERNEL             BACKEND                              COUNT     PERCENT
 2     collocate ortho    REF                                  26702      23.98%
 2     integrate ortho    REF                                  22912      20.57%
 3     collocate ortho    REF                                  22163      19.90%
 3     integrate ortho    REF                                  22032      19.78%
 4     integrate ortho    REF                                   8572       7.70%
 4     collocate ortho    REF                                   7141       6.41%
 5     integrate ortho    REF                                    772       0.69%
 1     collocate ortho    REF                                    420       0.38%
 2     collocate general  REF                                    324       0.29%
 2     integrate general  REF                                    288       0.26%
 3     integrate general  REF                                     36       0.03%
 -------------------------------------------------------------------------------

 MEMORY| Estimated peak process memory [MiB]                                1795

 -------------------------------------------------------------------------------
 ----                             MULTIGRID INFO                            ----
 -------------------------------------------------------------------------------
 count for grid        1:          30032          cutoff [a.u.]          200.00
 count for grid        2:          17721          cutoff [a.u.]           66.67
 count for grid        3:          13933          cutoff [a.u.]           22.22
 count for grid        4:          10495          cutoff [a.u.]            7.41
 total gridlevel count  :          72181

 -------------------------------------------------------------------------------
 -                                                                             -
 -                           R E F E R E N C E S                               -
 -                                                                             -
 -------------------------------------------------------------------------------
 
 CP2K version 2023.1 (Development Version), the CP2K developers group (2023).
 CP2K is freely available from https://www.cp2k.org/ .

 Kuehne,Thomas D.; Iannuzzi,Marcella; Del Ben,Mauro;
 Rybkin,Vladimir V.; Seewald,Patrick; Stein,Frederick; Laino,Teodoro;
 Khaliullin,Rustam Z.; Schuett,Ole; Schiffmann,Florian; Golze,Dorothea;
 Wilhelm,Jan; Chulkov,Sergey; Bani-Hashemian,Mohammad Hossein;
 Weber,Valery; Borstnik,Urban; Taillefumier,Mathieu;
 Jakobovits,Alice Shoshana; Lazzaro,Alfio; Pabst,Hans; Mueller,Tiziano;
 Schade,Robert; Guidon,Manuel; Andermatt,Samuel; Holmberg,Nico;
 Schenter,Gregory K.; Hehn,Anna; Bussy,Augustin; Belleflamme,Fabian;
 Tabacchi,Gloria; Gloess,Andreas; Lass,Michael; Bethune,Iain;
 Mundy,Christopher J.; Plessl,Christian; Watkins,Matt;
 VandeVondele,Joost; Krack,Matthias; Hutter,Juerg. 
 The Journal of Chemical Physics, 152 (19), (2020). 
 CP2K: An electronic structure and molecular dynamics software package -
 Quickstep: Efficient and accurate electronic structure calculations.
 https://doi.org/10.1063/5.0007045

 Schuett, Ole; Messmer, Peter; Hutter, Juerg; VandeVondele, Joost. 
 Electronic Structure Calculations on Graphics Processing Units, John
 Wiley & Sons, Ltd, 173-190 (2016). 
 GPU-Accelerated Sparse Matrix-Matrix Multiplication for
 Linear Scaling Density Functional Theory.
 https://doi.org/10.1002/9781118670712.ch8

 Borstnik, U; VandeVondele, J; Weber, V; Hutter, J. 
 PARALLEL COMPUTING, 40 (5-6), 47-58 (2014). 
 Sparse matrix multiplication: The distributed block-compressed sparse
 row library.
 https://doi.org/10.1016/j.parco.2014.03.012

 Hutter, J; Iannuzzi, M; Schiffmann, F; VandeVondele, J. 
 WIREs Comput Mol Sci., 4 (1), 15-25 (2014). 
 CP2K: atomistic simulations of condensed matter systems.
 https://doi.org/10.1002/wcms.1159

 VandeVondele, J; Hutter, J. 
 JOURNAL OF CHEMICAL PHYSICS, 127 (11), 114105 (2007). 
 Gaussian basis sets for accurate calculations on molecular systems in
 gas and condensed phases.
 https://doi.org/10.1063/1.2770708

 Genovese, L; Deutsch, T; Goedecker, S. 
 JOURNAL OF CHEMICAL PHYSICS, 127 (5), 054704 (2007). 
 Efficient and accurate three-dimensional Poisson solver for surface
 problems.
 https://doi.org/10.1063/1.2754685

 Kuhne, TD; Krack, M; Mohamed, FR; Parrinello, M. 
 PHYSICAL REVIEW LETTERS, 98 (6), 066401 (2007). 
 Efficient and accurate Car-Parrinello-like approach to
 Born-Oppenheimer molecular dynamics.
 https://doi.org/10.1103/PhysRevLett.98.066401

 Genovese, L; Deutsch, T; Neelov, A; Goedecker, S; Beylkin, G. 
 JOURNAL OF CHEMICAL PHYSICS, 125 (7), 074105 (2006). 
 Efficient solution of Poisson's equation with free boundary conditions.
 https://doi.org/10.1063/1.2335442

 Krack, M. 
 THEORETICAL CHEMISTRY ACCOUNTS, 114 (1-3), 145-152 (2005). 
 Pseudopotentials for H to Kr optimized for gradient-corrected
 exchange-correlation functionals.
 https://doi.org/10.1007/s00214-005-0655-y

 Frigo, M; Johnson, SG. 
 PROCEEDINGS OF THE IEEE, 93 (2), 216-231 (2005). 
 The design and implementation of FFTW3.
 https://doi.org/10.1109/JPROC.2004.840301

 Kolafa, J. 
 JOURNAL OF COMPUTATIONAL CHEMISTRY, 25 (3), 335-342 (2004). 
 Time-reversible always stable predictor-corrector method for
 molecular dynamics of polarizable molecules.
 https://doi.org/10.1002/jcc.10385

 VandeVondele, J; Hutter, J. 
 JOURNAL OF CHEMICAL PHYSICS, 118 (10), 4365-4369 (2003). 
 An efficient orbital transformation method for electronic structure
 calculations.
 https://doi.org/10.1063/1.1543154

 Lippert, G; Hutter, J; Parrinello, M. 
 THEORETICAL CHEMISTRY ACCOUNTS, 103 (2), 124-140 (1999). 
 The Gaussian and augmented-plane-wave density functional method for ab
 initio molecular dynamics simulations.
 https://doi.org/10.1007/s002140050523

 Krack, M; Parrinello, M. 
 PHYSICAL CHEMISTRY CHEMICAL PHYSICS, 2 (10), 2105-2112 (2000). 
 All-electron ab-initio molecular dynamics.
 https://doi.org/10.1039/b001167n

 Hartwigsen, C; Goedecker, S; Hutter, J. 
 PHYSICAL REVIEW B, 58 (7), 3641-3662 (1998). 
 Relativistic separable dual-space Gaussian pseudopotentials from H to Rn.
 https://doi.org/10.1103/PhysRevB.58.3641

 Perdew, JP; Burke, K; Ernzerhof, M. 
 PHYSICAL REVIEW LETTERS, 77 (18), 3865-3868 (1996). 
 Generalized gradient approximation made simple.
 https://doi.org/10.1103/PhysRevLett.77.3865

 Goedecker, S; Teter, M; Hutter, J. 
 PHYSICAL REVIEW B, 54 (3), 1703-1710 (1996). 
 Separable dual-space Gaussian pseudopotentials.
 https://doi.org/10.1103/PhysRevB.54.1703


 -------------------------------------------------------------------------------
 -                                                                             -
 -                                T I M I N G                                  -
 -                                                                             -
 -------------------------------------------------------------------------------
 SUBROUTINE                       CALLS  ASD         SELF TIME        TOTAL TIME
                                MAXIMUM       AVERAGE  MAXIMUM  AVERAGE  MAXIMUM
 CP2K                                 1  1.0    0.138    0.138  301.851  301.851
 cp_geo_opt                           1  2.0    0.000    0.000  299.193  299.193
 geoopt_bfgs                          1  3.0    0.001    0.001  299.193  299.193
 cp_eval_at                           5  4.0    0.001    0.001  299.136  299.136
 qs_energies                          5  5.8    0.001    0.001  269.258  269.258
 qs_forces                            4  5.0    0.001    0.001  263.356  263.356
 rebuild_ks_matrix                   36  9.6    0.000    0.000  255.050  255.050
 qs_ks_build_kohn_sham_matrix        36 10.6    0.010    0.010  255.050  255.050
 scf_env_do_scf                       5  6.8    0.001    0.001  249.430  249.430
 qs_ks_update_qs_env                 37  8.9    0.000    0.000  225.325  225.325
 scf_env_do_scf_inner_loop           32  7.9    0.003    0.003  212.700  212.700
 pw_transfer                        811 13.5    0.077    0.077  157.384  157.384
 fft_wrap_pw1pw2                    775 14.5    0.011    0.011  157.041  157.041
 fft_wrap_pw1pw2_200                526 15.9   13.178   13.178  153.690  153.690
 qs_vxc_create                       36 11.6    0.001    0.001  146.834  146.834
 xc_vxc_pw_create                    36 12.6    1.599    1.599  146.833  146.833
 xc_rho_set_and_dset_create          36 13.6    1.587    1.587   95.932   95.932
 fft3d_s                            776 16.5   76.266   76.266   76.285   76.285
 xc_pw_derive                       216 14.6    0.003    0.003   68.569   68.569
 xc_functional_eval                 684 13.6    0.002    0.002   63.440   63.440
 pbe_lda_eval                       684 14.6   63.438   63.438   63.438   63.438
 pw_poisson_solve                    36 11.6    6.593    6.593   62.839   62.839
 xc_pw_divergence                    36 13.6    0.002    0.002   48.710   48.710
 pw_gather_s                        404 16.1   39.809   39.809   39.809   39.809
 init_scf_loop                        5  7.8    0.000    0.000   36.728   36.728
 qs_ks_update_qs_env_forces           4  6.0    0.000    0.000   29.727   29.727
 pw_scatter_s                       371 17.0   27.616   27.616   27.616   27.616
 qs_rho_update_rho_low               37  9.0    0.001    0.001   27.586   27.586
 calculate_rho_elec                  37 10.0    0.906    0.906   27.516   27.516
 ps_wavelet_solve                    36 12.6   26.430   26.430   27.185   27.185
 density_rs2pw                       37 11.0    0.003    0.003   24.047   24.047
 sum_up_and_integrate                36 11.6    0.957    0.957   17.543   17.543
 integrate_v_rspace                  36 12.6    0.002    0.002   16.586   16.586
 scf_post_calculation_gpw             5  6.8    0.001    0.001   15.897   15.897
 prepare_gapw_den                    36 11.6    0.001    0.001   14.426   14.426
 potential_pw2rs                     36 13.6    0.025    0.025   14.149   14.149
 put_rho0_on_grid                    36 12.6    0.949    0.949   13.958   13.958
 calculate_wavefunction              10  8.8    0.052    0.052    8.225    8.225
 qs_scf_post_unocc_cubes              5  7.8    0.108    0.108    7.738    7.738
 qs_scf_post_occ_cubes                5  7.8    0.107    0.107    6.278    6.278
 -------------------------------------------------------------------------------

 The number of warnings for this run is : 1
 
 -------------------------------------------------------------------------------
  **** **** ******  **  PROGRAM ENDED AT                 2023-04-05 11:11:59.501
 ***** ** ***  *** **   PROGRAM RAN ON                                eu-a2p-294
 **    ****   ******    PROGRAM RAN BY                                 jbachmann
 ***** **    ** ** **   PROGRAM PROCESS ID                                 84847
  **** **  *******  **  PROGRAM STOPPED IN /cluster/home/jbachmann/Molecular-and
                                           -Materials-Modelling-FS2023/exercise7
                                           /PBE/TZVP
