 DBCSR| CPU Multiplication driver                                           XSMM
 DBCSR| Multrec recursion limit                                              512
 DBCSR| Multiplication stack size                                           1000
 DBCSR| Maximum elements for images                                    UNLIMITED
 DBCSR| Multiplicative factor virtual images                                   1
 DBCSR| Use multiplication densification                                       T
 DBCSR| Multiplication size stacks                                             3
 DBCSR| Use memory pool for CPU allocation                                     F
 DBCSR| Number of 3D layers                                               SINGLE
 DBCSR| Use MPI memory allocation                                              F
 DBCSR| Use RMA algorithm                                                      F
 DBCSR| Use Communication thread                                               T
 DBCSR| Communication thread load                                             87
 DBCSR| MPI: My node id                                                        0
 DBCSR| MPI: Number of nodes                                                   1
 DBCSR| OMP: Current number of threads                                         1
 DBCSR| OMP: Max number of threads                                             1
 DBCSR| Split modifier for TAS multiplication algorithm                  1.0E+00


  **** **** ******  **  PROGRAM STARTED AT               2023-05-24 09:29:59.576
 ***** ** ***  *** **   PROGRAM STARTED ON                           eu-g5-002-1
 **    ****   ******    PROGRAM STARTED BY                             jbachmann
 ***** **    ** ** **   PROGRAM PROCESS ID                                 21816
  **** **  *******  **  PROGRAM STARTED IN /cluster/home/jbachmann/Molecular-and
                                           -Materials-Modelling-FS2023/exercise1
                                           3

 CP2K| version string:                                          CP2K version 8.2
 CP2K| source code revision number:                                  git:310b7ab
 CP2K| cp2kflags: omp fftw3 libxc parallel mpi3 scalapack xsmm plumed2 spglib li
 CP2K|            bvori libbqb
 CP2K| is freely available from                            https://www.cp2k.org/
 CP2K| Program compiled at                         Tue Aug  3 16:40:32 CEST 2021
 CP2K| Program compiled on                                           eu-g1-012-3
 CP2K| Program compiled for                     Linux-x86-64-gfortran-opt-nolint
 CP2K| Data directory path      /cluster/apps/nss/gcc-6.3.0/cp2k/8.2/x86_64/data
 CP2K| Input file name                                             geo-opt-a.inp

 GLOBAL| Force Environment number                                              1
 GLOBAL| Basis set file name                                           BASIS_SET
 GLOBAL| Potential file name                                           POTENTIAL
 GLOBAL| MM Potential file name                                     MM_POTENTIAL
 GLOBAL| Coordinate file name                                      __STD_INPUT__
 GLOBAL| Method name                                                        CP2K
 GLOBAL| Project name                                                    ch3cl-a
 GLOBAL| Run type                                                        GEO_OPT
 GLOBAL| FFT library                                                       FFTW3
 GLOBAL| Diagonalization library                                       ScaLAPACK
 GLOBAL| Orthonormality check for eigenvectors                          DISABLED
 GLOBAL| Matrix multiplication library                                    SCALAP
 GLOBAL| All-to-all communication in single precision                          F
 GLOBAL| FFTs using library dependent lengths                                  F
 GLOBAL| Grid backend                                                       AUTO
 GLOBAL| Global print level                                                  LOW
 GLOBAL| MPI I/O enabled                                                       T
 GLOBAL| Total number of message passing processes                             1
 GLOBAL| Number of threads for this process                                    1
 GLOBAL| This output is from process                                           0
 GLOBAL| CPU model name                          AMD EPYC 7742 64-Core Processor
 GLOBAL| CPUID                                                              1002

 MEMORY| system memory details [Kb]
 MEMORY|                        rank 0           min           max       average
 MEMORY| MemTotal            525874016     525874016     525874016     525874016
 MEMORY| MemFree             394078436     394078436     394078436     394078436
 MEMORY| Buffers                 59180         59180         59180         59180
 MEMORY| Cached               21943016      21943016      21943016      21943016
 MEMORY| Slab                  2721068       2721068       2721068       2721068
 MEMORY| SReclaimable          1273560       1273560       1273560       1273560
 MEMORY| MemLikelyFree       417354192     417354192     417354192     417354192


 GENERATE|  Preliminary Number of Bonds generated:                             0
 GENERATE|  Achieved consistency in connectivity generation.


              #####   #####        # #     # ######  ######   #####  
             #     # #     #      #  ##    # #     # #     # #     # 
             #     # #           #   # #   # #     # #     # #     # 
             #     #  #####     #    #  #  # #     # #     # #     # 
             #   # #       #   #     #   # # #     # #     # #     # 
             #    #  #     #  #      #    ## #     # #     # #     # 
              #### #  #####  #       #     # ######  ######   #####  
                                                                     
                              T. Laino and J. Hutter                 
                                                                     
                                   2008 - 2015                       


 SEMIEMPIRICAL|                      Coulomb Integral cutoff/taper was redefined
 SEMIEMPIRICAL| Old value [a.u.]                                          22.677
 SEMIEMPIRICAL| New value [a.u.]                                          18.897


 SEMIEMPIRICAL|                             Coulomb Integral cutoff/taper values
 SEMIEMPIRICAL| Cutoff [a.u.]                                             18.897
 SEMIEMPIRICAL| Taper  [a.u.]                                             18.897
 SEMIEMPIRICAL| Range  [a.u.]                                              0.000


 SEMIEMPIRICAL|                     Exchange Integral cutoff/taper was redefined
 SEMIEMPIRICAL| Default value [a.u.]                                      22.677
 SEMIEMPIRICAL| New value [a.u.]                                           4.724


 SEMIEMPIRICAL|                            Exchange Integral cutoff/taper values
 SEMIEMPIRICAL| Cutoff [a.u.]                                              4.724
 SEMIEMPIRICAL| Taper  [a.u.]                                              4.724
 SEMIEMPIRICAL| Range  [a.u.]                                              0.000



 TOTAL NUMBERS AND MAXIMUM NUMBERS

  Total number of            - Atomic kinds:                                   3
                             - Atoms:                                          6
                             - Shell sets:                                    11
                             - Shells:                                        11
                             - Primitive Cartesian functions:                 66
                             - Cartesian basis functions:                     27
                             - Spherical basis functions:                     25

  Maximum angular momentum of the orbital basis functions:                     2


 SCF PARAMETERS         Density guess:                                    ATOMIC
                        --------------------------------------------------------
                        max_scf:                                              50
                        max_scf_history:                                       0
                        max_diis:                                              4
                        --------------------------------------------------------
                        eps_scf:                                        1.00E-05
                        eps_scf_history:                                0.00E+00
                        eps_diis:                                       1.00E-01
                        eps_eigval:                                     1.00E-05
                        --------------------------------------------------------
                        level_shift [a.u.]:                                 0.00
                        --------------------------------------------------------
                        Mixing method:                           DIRECT_P_MIXING
                        --------------------------------------------------------
                        Outer loop SCF in use 
                        No variables optimised in outer loop
                        eps_scf                                         1.00E-07
                        max_scf                                              500
                        No outer loop optimization
                        step_size                                       5.00E-01

 BFGS| Use rational function optimization for step estimation:                NO
 BFGS| Use model Hessian for initial guess:                                  YES
 BFGS| Restart Hessian:                                                       NO
 BFGS| Trust radius:                                                       0.100

 *******************************************************************************
 ***                     STARTING GEOMETRY OPTIMIZATION                      ***
 ***                                   BFGS                                  ***
 *******************************************************************************

 Number of electrons:                                                         22
 Number of occupied orbitals:                                                 11
 Number of molecular orbitals:                                                11

 Number of orbital functions:                                                 25
 Number of independent orbital functions:                                     25

 Extrapolation method: initial_guess


 SCF WAVEFUNCTION OPTIMIZATION

  Step     Update method      Time    Convergence         Total energy    Change
  ------------------------------------------------------------------------------
     1 P_Mix/Diag. 0.40E+00    0.0     0.82810180       -20.5182999358 -2.05E+01
     2 P_Mix/Diag. 0.40E+00    0.0     0.49036872       -22.0335977109 -1.52E+00
     3 P_Mix/Diag. 0.40E+00    0.0     0.29041234       -23.0595016816 -1.03E+00
     4 P_Mix/Diag. 0.40E+00    0.0     0.17167981       -23.7173261618 -6.58E-01
     5 P_Mix/Diag. 0.40E+00    0.0     0.10207826       -24.1273486815 -4.10E-01
     6 P_Mix/Diag. 0.40E+00    0.0     0.06118230       -24.3789268193 -2.52E-01
     7 DIIS/Diag.  0.21E-02    0.0     0.03657885       -24.5318985346 -1.53E-01
     8 DIIS/Diag.  0.95E-04    0.0     0.00052131       -24.7642896610 -2.32E-01
     9 DIIS/Diag.  0.13E-03    0.0     0.00294375       -24.7642896402  2.08E-08
    10 DIIS/Diag.  0.57E-03    0.0     0.00258853       -24.7642853809  4.26E-06
    11 DIIS/Diag.  0.49E-04    0.0     0.00015382       -24.7642897706 -4.39E-06
    12 DIIS/Diag.  0.13E-04    0.0     0.00003791       -24.7642898017 -3.10E-08
    13 DIIS/Diag.  0.24E-05    0.0     0.00000931       -24.7642898032 -1.57E-09

  *** SCF run converged in    13 steps ***


  Core-core repulsion energy [eV]:                            902.68913362226033
  Core Hamiltonian energy [eV]:                             -1112.72538829914220
  Two-electron integral energy [eV]:                         -927.66868218841751
  Electronic energy [eV]:                                   -1576.55972939335106

  Total energy [eV]:                                         -673.87059577109062

  Atomic reference energy [eV]:                               671.46401689115214
  Heat of formation [kcal/mol]:                               -55.49703176907887

  outer SCF iter =    1 RMS gradient =   0.00E+00 energy =        -24.7642898032
  outer SCF loop converged in   1 iterations or   13 steps


 ENERGY| Total FORCE_EVAL ( QS ) energy [a.u.]:              -24.764289803328829

 --------  Informations at step =     0 ------------
  Optimization Method        =                 BFGS
  Total Energy               =       -24.7642898033
  Used time                  =                0.028
 ---------------------------------------------------

 --------------------------
 OPTIMIZATION STEP:      1
 --------------------------

  Step is scaled; Scaling factor =  0.18400

 Number of electrons:                                                         22
 Number of occupied orbitals:                                                 11
 Number of molecular orbitals:                                                11

 Number of orbital functions:                                                 25
 Number of independent orbital functions:                                     25

 Extrapolation method: ASPC


 SCF WAVEFUNCTION OPTIMIZATION

  Step     Update method      Time    Convergence         Total energy    Change
  ------------------------------------------------------------------------------
     1 P_Mix/Diag. 0.40E+00    0.0     0.02418309       -24.7777849146 -2.48E+01
     2 P_Mix/Diag. 0.40E+00    0.0     0.01940525       -24.7780985145 -3.14E-04
     3 DIIS/Diag.  0.18E-02    0.0     0.02887761       -24.7783465589 -2.48E-04
     4 DIIS/Diag.  0.62E-03    0.0     0.00144414       -24.7789524829 -6.06E-04
     5 DIIS/Diag.  0.97E-03    0.0     0.00096014       -24.7789485810  3.90E-06
     6 DIIS/Diag.  0.72E-03    0.0     0.00284298       -24.7789515462 -2.97E-06
     7 DIIS/Diag.  0.27E-04    0.0     0.00008119       -24.7789553513 -3.81E-06
     8 DIIS/Diag.  0.10E-04    0.0     0.00004730       -24.7789553556 -4.31E-09
     9 DIIS/Diag.  0.59E-06    0.0     0.00000203       -24.7789553563 -7.22E-10

  *** SCF run converged in     9 steps ***


  Core-core repulsion energy [eV]:                            891.67431317701994
  Core Hamiltonian energy [eV]:                             -1112.94429544505101
  Two-electron integral energy [eV]:                         -905.99936699594161
  Electronic energy [eV]:                                   -1565.94397894302165

  Total energy [eV]:                                         -674.26966576600182

  Atomic reference energy [eV]:                               671.46401689115214
  Heat of formation [kcal/mol]:                               -64.69980520413942

  outer SCF iter =    1 RMS gradient =   0.00E+00 energy =        -24.7789553563
  outer SCF loop converged in   1 iterations or    9 steps


 ENERGY| Total FORCE_EVAL ( QS ) energy [a.u.]:              -24.778955356349091

 --------  Informations at step =     1 ------------
  Optimization Method        =                 BFGS
  Total Energy               =       -24.7789553563
  Real energy change         =        -0.0146655530
  Predicted change in energy =        -0.0147539074
  Scaling factor             =         0.1840007931
  Step size                  =         0.1000000000
  Trust radius               =         0.1000000000
  Decrease in energy         =                  YES
  Used time                  =                0.027

  Convergence check :
  Max. step size             =         0.1000000000
  Conv. limit for step size  =         0.0030000000
  Convergence in step size   =                   NO
  RMS step size              =         0.0376429598
  Conv. limit for RMS step   =         0.0015000000
  Convergence in RMS step    =                   NO
  Max. gradient              =         0.0813259957
  Conv. limit for gradients  =         0.0001000000
  Conv. for gradients        =                   NO
  RMS gradient               =         0.0240368823
  Conv. limit for RMS grad.  =         0.0003000000
  Conv. for gradients        =                   NO
 ---------------------------------------------------

 --------------------------
 OPTIMIZATION STEP:      2
 --------------------------

  Step is scaled; Scaling factor =  0.21131

 Number of electrons:                                                         22
 Number of occupied orbitals:                                                 11
 Number of molecular orbitals:                                                11

 Number of orbital functions:                                                 25
 Number of independent orbital functions:                                     25

 Extrapolation method: ASPC


 SCF WAVEFUNCTION OPTIMIZATION

  Step     Update method      Time    Convergence         Total energy    Change
  ------------------------------------------------------------------------------
     1 P_Mix/Diag. 0.40E+00    0.0     0.00372111       -24.7913007121 -2.48E+01
     2 P_Mix/Diag. 0.40E+00    0.0     0.00276888       -24.7913203398 -1.96E-05
     3 DIIS/Diag.  0.28E-03    0.0     0.00319570       -24.7913349543 -1.46E-05
     4 DIIS/Diag.  0.16E-03    0.0     0.00040628       -24.7913661958 -3.12E-05
     5 DIIS/Diag.  0.24E-03    0.0     0.00028525       -24.7913659415  2.54E-07
     6 DIIS/Diag.  0.18E-03    0.0     0.00086622       -24.7913661308 -1.89E-07
     7 DIIS/Diag.  0.37E-05    0.0     0.00001174       -24.7913663797 -2.49E-07
     8 DIIS/Diag.  0.89E-06    0.0     0.00000324       -24.7913663798 -1.34E-10

  *** SCF run converged in     8 steps ***


  Core-core repulsion energy [eV]:                            879.96368664801730
  Core Hamiltonian energy [eV]:                             -1113.21912452819970
  Two-electron integral energy [eV]:                         -882.70389802031013
  Electronic energy [eV]:                                   -1554.57107353835477

  Total energy [eV]:                                         -674.60738689033747

  Atomic reference energy [eV]:                               671.46401689115214
  Heat of formation [kcal/mol]:                               -72.48783996276984

  outer SCF iter =    1 RMS gradient =   0.00E+00 energy =        -24.7913663798
  outer SCF loop converged in   1 iterations or    8 steps


 ENERGY| Total FORCE_EVAL ( QS ) energy [a.u.]:              -24.791366379848469

 --------  Informations at step =     2 ------------
  Optimization Method        =                 BFGS
  Total Energy               =       -24.7913663798
  Real energy change         =        -0.0124110235
  Predicted change in energy =        -0.0123678421
  Scaling factor             =         0.2113071377
  Step size                  =         0.1000000000
  Trust radius               =         0.1000000000
  Decrease in energy         =                  YES
  Used time                  =                0.043

  Convergence check :
  Max. step size             =         0.1000000000
  Conv. limit for step size  =         0.0030000000
  Convergence in step size   =                   NO
  RMS step size              =         0.0405889218
  Conv. limit for RMS step   =         0.0015000000
  Convergence in RMS step    =                   NO
  Max. gradient              =         0.0612785768
  Conv. limit for gradients  =         0.0001000000
  Conv. for gradients        =                   NO
  RMS gradient               =         0.0186454774
  Conv. limit for RMS grad.  =         0.0003000000
  Conv. for gradients        =                   NO
 ---------------------------------------------------

 --------------------------
 OPTIMIZATION STEP:      3
 --------------------------

  Step is scaled; Scaling factor =  0.24694

 Number of electrons:                                                         22
 Number of occupied orbitals:                                                 11
 Number of molecular orbitals:                                                11

 Number of orbital functions:                                                 25
 Number of independent orbital functions:                                     25

 Extrapolation method: ASPC


 SCF WAVEFUNCTION OPTIMIZATION

  Step     Update method      Time    Convergence         Total energy    Change
  ------------------------------------------------------------------------------
     1 P_Mix/Diag. 0.40E+00    0.0     0.00323689       -24.8009048226 -2.48E+01
     2 P_Mix/Diag. 0.40E+00    0.0     0.00253778       -24.8009095752 -4.75E-06
     3 DIIS/Diag.  0.18E-03    0.0     0.00343278       -24.8009131683 -3.59E-06
     4 DIIS/Diag.  0.49E-04    0.0     0.00019990       -24.8009212599 -8.09E-06
     5 DIIS/Diag.  0.89E-04    0.0     0.00014046       -24.8009212005  5.93E-08
     6 DIIS/Diag.  0.61E-04    0.0     0.00030747       -24.8009212465 -4.60E-08
     7 DIIS/Diag.  0.16E-05    0.0     0.00000549       -24.8009212886 -4.21E-08

  *** SCF run converged in     7 steps ***


  Core-core repulsion energy [eV]:                            869.48291501780307
  Core Hamiltonian energy [eV]:                             -1113.48725253078760
  Two-electron integral energy [eV]:                         -861.72610333500893
  Electronic energy [eV]:                                   -1544.35030419829218

  Total energy [eV]:                                         -674.86738918048911

  Atomic reference energy [eV]:                               671.46401689115214
  Heat of formation [kcal/mol]:                               -78.48363568625940

  outer SCF iter =    1 RMS gradient =   0.00E+00 energy =        -24.8009212886
  outer SCF loop converged in   1 iterations or    7 steps


 ENERGY| Total FORCE_EVAL ( QS ) energy [a.u.]:              -24.800921288634132

 --------  Informations at step =     3 ------------
  Optimization Method        =                 BFGS
  Total Energy               =       -24.8009212886
  Real energy change         =        -0.0095549088
  Predicted change in energy =        -0.0095391205
  Scaling factor             =         0.2469407584
  Step size                  =         0.1000000000
  Trust radius               =         0.1000000000
  Decrease in energy         =                  YES
  Used time                  =                0.038

  Convergence check :
  Max. step size             =         0.1000000000
  Conv. limit for step size  =         0.0030000000
  Convergence in step size   =                   NO
  RMS step size              =         0.0409350169
  Conv. limit for RMS step   =         0.0015000000
  Convergence in RMS step    =                   NO
  Max. gradient              =         0.0443055130
  Conv. limit for gradients  =         0.0001000000
  Conv. for gradients        =                   NO
  RMS gradient               =         0.0138258396
  Conv. limit for RMS grad.  =         0.0003000000
  Conv. for gradients        =                   NO
 ---------------------------------------------------

 --------------------------
 OPTIMIZATION STEP:      4
 --------------------------

  Step is scaled; Scaling factor =  0.30484

 Number of electrons:                                                         22
 Number of occupied orbitals:                                                 11
 Number of molecular orbitals:                                                11

 Number of orbital functions:                                                 25
 Number of independent orbital functions:                                     25

 Extrapolation method: ASPC


 SCF WAVEFUNCTION OPTIMIZATION

  Step     Update method      Time    Convergence         Total energy    Change
  ------------------------------------------------------------------------------
     1 P_Mix/Diag. 0.40E+00    0.0     0.00187889       -24.8076461785 -2.48E+01
     2 P_Mix/Diag. 0.40E+00    0.0     0.00141447       -24.8076491295 -2.95E-06
     3 DIIS/Diag.  0.18E-03    0.0     0.00175750       -24.8076514192 -2.29E-06
     4 DIIS/Diag.  0.65E-04    0.0     0.00013782       -24.8076566998 -5.28E-06
     5 DIIS/Diag.  0.10E-03    0.0     0.00008637       -24.8076566628  3.70E-08
     6 DIIS/Diag.  0.78E-04    0.0     0.00029815       -24.8076566886 -2.59E-08
     7 DIIS/Diag.  0.12E-05    0.0     0.00000304       -24.8076567294 -4.08E-08

  *** SCF run converged in     7 steps ***


  Core-core repulsion energy [eV]:                            859.93182815547004
  Core Hamiltonian energy [eV]:                             -1113.71153947639846
  Two-electron integral energy [eV]:                         -842.54191704933078
  Electronic energy [eV]:                                   -1534.98249800106396

  Total energy [eV]:                                         -675.05066984559380

  Atomic reference energy [eV]:                               671.46401689115214
  Heat of formation [kcal/mol]:                               -82.71018856543746

  outer SCF iter =    1 RMS gradient =   0.00E+00 energy =        -24.8076567294
  outer SCF loop converged in   1 iterations or    7 steps


 ENERGY| Total FORCE_EVAL ( QS ) energy [a.u.]:              -24.807656729415982

 --------  Informations at step =     4 ------------
  Optimization Method        =                 BFGS
  Total Energy               =       -24.8076567294
  Real energy change         =        -0.0067354408
  Predicted change in energy =        -0.0067150810
  Scaling factor             =         0.3048381643
  Step size                  =         0.1000000000
  Trust radius               =         0.1000000000
  Decrease in energy         =                  YES
  Used time                  =                0.041

  Convergence check :
  Max. step size             =         0.1000000000
  Conv. limit for step size  =         0.0030000000
  Convergence in step size   =                   NO
  RMS step size              =         0.0401921117
  Conv. limit for RMS step   =         0.0015000000
  Convergence in RMS step    =                   NO
  Max. gradient              =         0.0299552203
  Conv. limit for gradients  =         0.0001000000
  Conv. for gradients        =                   NO
  RMS gradient               =         0.0095497698
  Conv. limit for RMS grad.  =         0.0003000000
  Conv. for gradients        =                   NO
 ---------------------------------------------------

 --------------------------
 OPTIMIZATION STEP:      5
 --------------------------

  Step is scaled; Scaling factor =  0.40157

 Number of electrons:                                                         22
 Number of occupied orbitals:                                                 11
 Number of molecular orbitals:                                                11

 Number of orbital functions:                                                 25
 Number of independent orbital functions:                                     25

 Extrapolation method: ASPC


 SCF WAVEFUNCTION OPTIMIZATION

  Step     Update method      Time    Convergence         Total energy    Change
  ------------------------------------------------------------------------------
     1 P_Mix/Diag. 0.40E+00    0.0     0.00109580       -24.8119419004 -2.48E+01
     2 P_Mix/Diag. 0.40E+00    0.0     0.00086688       -24.8119423097 -4.09E-07
     3 DIIS/Diag.  0.56E-04    0.0     0.00124171       -24.8119426306 -3.21E-07
     4 DIIS/Diag.  0.18E-04    0.0     0.00004780       -24.8119434067 -7.76E-07
     5 DIIS/Diag.  0.26E-04    0.0     0.00002985       -24.8119434015  5.25E-09
     6 DIIS/Diag.  0.20E-04    0.0     0.00008555       -24.8119434053 -3.86E-09
     7 DIIS/Diag.  0.48E-06    0.0     0.00000129       -24.8119434104 -5.08E-09

  *** SCF run converged in     7 steps ***


  Core-core repulsion energy [eV]:                            851.05007785091061
  Core Hamiltonian energy [eV]:                             -1113.88591651582715
  Two-electron integral energy [eV]:                         -824.66295540601425
  Electronic energy [eV]:                                   -1526.21739421883422

  Total energy [eV]:                                         -675.16731636792372

  Atomic reference energy [eV]:                               671.46401689115214
  Heat of formation [kcal/mol]:                               -85.40012148617404

  outer SCF iter =    1 RMS gradient =   0.00E+00 energy =        -24.8119434104
  outer SCF loop converged in   1 iterations or    7 steps


 ENERGY| Total FORCE_EVAL ( QS ) energy [a.u.]:              -24.811943410416184

 --------  Informations at step =     5 ------------
  Optimization Method        =                 BFGS
  Total Energy               =       -24.8119434104
  Real energy change         =        -0.0042866810
  Predicted change in energy =        -0.0042500857
  Scaling factor             =         0.4015725870
  Step size                  =         0.1000000000
  Trust radius               =         0.1000000000
  Decrease in energy         =                  YES
  Used time                  =                0.057

  Convergence check :
  Max. step size             =         0.1000000000
  Conv. limit for step size  =         0.0030000000
  Convergence in step size   =                   NO
  RMS step size              =         0.0391896123
  Conv. limit for RMS step   =         0.0015000000
  Convergence in RMS step    =                   NO
  Max. gradient              =         0.0176092713
  Conv. limit for gradients  =         0.0001000000
  Conv. for gradients        =                   NO
  RMS gradient               =         0.0057412598
  Conv. limit for RMS grad.  =         0.0003000000
  Conv. for gradients        =                   NO
 ---------------------------------------------------

 --------------------------
 OPTIMIZATION STEP:      6
 --------------------------

  Step is scaled; Scaling factor =  0.57869

 Number of electrons:                                                         22
 Number of occupied orbitals:                                                 11
 Number of molecular orbitals:                                                11

 Number of orbital functions:                                                 25
 Number of independent orbital functions:                                     25

 Extrapolation method: ASPC


 SCF WAVEFUNCTION OPTIMIZATION

  Step     Update method      Time    Convergence         Total energy    Change
  ------------------------------------------------------------------------------
     1 P_Mix/Diag. 0.40E+00    0.0     0.00101867       -24.8141731769 -2.48E+01
     2 P_Mix/Diag. 0.40E+00    0.0     0.00080996       -24.8141737943 -6.17E-07
     3 DIIS/Diag.  0.70E-04    0.0     0.00116556       -24.8141742793 -4.85E-07
     4 DIIS/Diag.  0.29E-04    0.0     0.00005525       -24.8141754462 -1.17E-06
     5 DIIS/Diag.  0.44E-04    0.0     0.00003589       -24.8141754350  1.12E-08
     6 DIIS/Diag.  0.34E-04    0.0     0.00012524       -24.8141754430 -8.03E-09
     7 DIIS/Diag.  0.60E-06    0.0     0.00000147       -24.8141754555 -1.26E-08

  *** SCF run converged in     7 steps ***


  Core-core repulsion energy [eV]:                            842.71115550428340
  Core Hamiltonian energy [eV]:                             -1114.00781503182770
  Two-electron integral energy [eV]:                         -807.86278775464700
  Electronic energy [eV]:                                   -1517.93920890915115

  Total energy [eV]:                                         -675.22805340486775

  Atomic reference energy [eV]:                               671.46401689115214
  Heat of formation [kcal/mol]:                               -86.80075094276170

  outer SCF iter =    1 RMS gradient =   0.00E+00 energy =        -24.8141754555
  outer SCF loop converged in   1 iterations or    7 steps


 ENERGY| Total FORCE_EVAL ( QS ) energy [a.u.]:              -24.814175455550696

 --------  Informations at step =     6 ------------
  Optimization Method        =                 BFGS
  Total Energy               =       -24.8141754556
  Real energy change         =        -0.0022320451
  Predicted change in energy =        -0.0021834048
  Scaling factor             =         0.5786882281
  Step size                  =         0.1000000000
  Trust radius               =         0.1000000000
  Decrease in energy         =                  YES
  Used time                  =                0.042

  Convergence check :
  Max. step size             =         0.1000000000
  Conv. limit for step size  =         0.0030000000
  Convergence in step size   =                   NO
  RMS step size              =         0.0376581304
  Conv. limit for RMS step   =         0.0015000000
  Convergence in RMS step    =                   NO
  Max. gradient              =         0.0070933561
  Conv. limit for gradients  =         0.0001000000
  Conv. for gradients        =                   NO
  RMS gradient               =         0.0024426558
  Conv. limit for RMS grad.  =         0.0003000000
  Conv. for gradients        =                   NO
 ---------------------------------------------------

 --------------------------
 OPTIMIZATION STEP:      7
 --------------------------

 Number of electrons:                                                         22
 Number of occupied orbitals:                                                 11
 Number of molecular orbitals:                                                11

 Number of orbital functions:                                                 25
 Number of independent orbital functions:                                     25

 Extrapolation method: ASPC


 SCF WAVEFUNCTION OPTIMIZATION

  Step     Update method      Time    Convergence         Total energy    Change
  ------------------------------------------------------------------------------
     1 P_Mix/Diag. 0.40E+00    0.0     0.00111841       -24.8148470767 -2.48E+01
     2 P_Mix/Diag. 0.40E+00    0.0     0.00088590       -24.8148481221 -1.05E-06
     3 DIIS/Diag.  0.87E-04    0.0     0.00126414       -24.8148489356 -8.14E-07
     4 DIIS/Diag.  0.45E-04    0.0     0.00008786       -24.8148508897 -1.95E-06
     5 DIIS/Diag.  0.70E-04    0.0     0.00005845       -24.8148508629  2.68E-08
     6 DIIS/Diag.  0.54E-04    0.0     0.00019039       -24.8148508826 -1.97E-08
     7 DIIS/Diag.  0.76E-06    0.0     0.00000196       -24.8148509110 -2.84E-08

  *** SCF run converged in     7 steps ***


  Core-core repulsion energy [eV]:                            835.14704696486490
  Core Hamiltonian energy [eV]:                             -1114.07152845944006
  Two-electron integral energy [eV]:                         -792.64390397413240
  Electronic energy [eV]:                                   -1510.39348044650615

  Total energy [eV]:                                         -675.24643348164125

  Atomic reference energy [eV]:                               671.46401689115214
  Heat of formation [kcal/mol]:                               -87.22460561593343

  outer SCF iter =    1 RMS gradient =   0.00E+00 energy =        -24.8148509110
  outer SCF loop converged in   1 iterations or    7 steps


 ENERGY| Total FORCE_EVAL ( QS ) energy [a.u.]:              -24.814850910974592

 --------  Informations at step =     7 ------------
  Optimization Method        =                 BFGS
  Total Energy               =       -24.8148509110
  Real energy change         =        -0.0006754554
  Predicted change in energy =        -0.0006207999
  Scaling factor             =         0.5786882281
  Step size                  =         0.0971042486
  Trust radius               =         0.1000000000
  Decrease in energy         =                  YES
  Used time                  =                0.048

  Convergence check :
  Max. step size             =         0.0971042486
  Conv. limit for step size  =         0.0030000000
  Convergence in step size   =                   NO
  RMS step size              =         0.0342078203
  Conv. limit for RMS step   =         0.0015000000
  Convergence in RMS step    =                   NO
  Max. gradient              =         0.0013482192
  Conv. limit for gradients  =         0.0001000000
  Conv. for gradients        =                   NO
  RMS gradient               =         0.0006005232
  Conv. limit for RMS grad.  =         0.0003000000
  Conv. for gradients        =                   NO
 ---------------------------------------------------

 --------------------------
 OPTIMIZATION STEP:      8
 --------------------------

 Number of electrons:                                                         22
 Number of occupied orbitals:                                                 11
 Number of molecular orbitals:                                                11

 Number of orbital functions:                                                 25
 Number of independent orbital functions:                                     25

 Extrapolation method: ASPC


 SCF WAVEFUNCTION OPTIMIZATION

  Step     Update method      Time    Convergence         Total energy    Change
  ------------------------------------------------------------------------------
     1 P_Mix/Diag. 0.40E+00    0.0     0.00697327       -24.8147576825 -2.48E+01
     2 P_Mix/Diag. 0.40E+00    0.0     0.00549008       -24.8147931625 -3.55E-05
     3 DIIS/Diag.  0.38E-03    0.0     0.00773868       -24.8148202453 -2.71E-05
     4 DIIS/Diag.  0.25E-03    0.0     0.00049650       -24.8148840914 -6.38E-05
     5 DIIS/Diag.  0.38E-03    0.0     0.00033235       -24.8148833320  7.59E-07
     6 DIIS/Diag.  0.29E-03    0.0     0.00097682       -24.8148838945 -5.63E-07
     7 DIIS/Diag.  0.61E-05    0.0     0.00001632       -24.8148846057 -7.11E-07
     8 DIIS/Diag.  0.13E-05    0.0     0.00000378       -24.8148846059 -2.31E-10

  *** SCF run converged in     8 steps ***


  Core-core repulsion energy [eV]:                            833.75179037282726
  Core Hamiltonian energy [eV]:                             -1114.06313679780146
  Two-electron integral energy [eV]:                         -789.87200788630412
  Electronic energy [eV]:                                   -1508.99914074095364

  Total energy [eV]:                                         -675.24735036812638

  Atomic reference energy [eV]:                               671.46401689115214
  Heat of formation [kcal/mol]:                               -87.24574952225369

  outer SCF iter =    1 RMS gradient =   0.00E+00 energy =        -24.8148846059
  outer SCF loop converged in   1 iterations or    8 steps


 ENERGY| Total FORCE_EVAL ( QS ) energy [a.u.]:              -24.814884605945590

 --------  Informations at step =     8 ------------
  Optimization Method        =                 BFGS
  Total Energy               =       -24.8148846059
  Real energy change         =        -0.0000336950
  Predicted change in energy =        -0.0000221726
  Scaling factor             =         0.5786882281
  Step size                  =         0.0212205774
  Trust radius               =         0.1000000000
  Decrease in energy         =                  YES
  Used time                  =                0.053

  Convergence check :
  Max. step size             =         0.0212205774
  Conv. limit for step size  =         0.0030000000
  Convergence in step size   =                   NO
  RMS step size              =         0.0065915642
  Conv. limit for RMS step   =         0.0015000000
  Convergence in RMS step    =                   NO
  Max. gradient              =         0.0015555075
  Conv. limit for gradients  =         0.0001000000
  Conv. for gradients        =                   NO
  RMS gradient               =         0.0006241581
  Conv. limit for RMS grad.  =         0.0003000000
  Conv. for gradients        =                   NO
 ---------------------------------------------------

 --------------------------
 OPTIMIZATION STEP:      9
 --------------------------

 Number of electrons:                                                         22
 Number of occupied orbitals:                                                 11
 Number of molecular orbitals:                                                11

 Number of orbital functions:                                                 25
 Number of independent orbital functions:                                     25

 Extrapolation method: ASPC


 SCF WAVEFUNCTION OPTIMIZATION

  Step     Update method      Time    Convergence         Total energy    Change
  ------------------------------------------------------------------------------
     1 P_Mix/Diag. 0.40E+00    0.0     0.00828046       -24.8147439232 -2.48E+01
     2 P_Mix/Diag. 0.40E+00    0.0     0.00650736       -24.8147917375 -4.78E-05
     3 DIIS/Diag.  0.47E-03    0.0     0.00918645       -24.8148284043 -3.67E-05
     4 DIIS/Diag.  0.28E-03    0.0     0.00055984       -24.8149156123 -8.72E-05
     5 DIIS/Diag.  0.43E-03    0.0     0.00037705       -24.8149146108  1.00E-06
     6 DIIS/Diag.  0.32E-03    0.0     0.00114426       -24.8149153490 -7.38E-07
     7 DIIS/Diag.  0.58E-05    0.0     0.00001586       -24.8149162828 -9.34E-07
     8 DIIS/Diag.  0.14E-05    0.0     0.00000406       -24.8149162831 -3.22E-10

  *** SCF run converged in     8 steps ***


  Core-core repulsion energy [eV]:                            832.16264793074322
  Core Hamiltonian energy [eV]:                             -1114.04145313233221
  Two-electron integral energy [eV]:                         -786.73881429273774
  Electronic energy [eV]:                                   -1507.41086027870119

  Total energy [eV]:                                         -675.24821234795786

  Atomic reference energy [eV]:                               671.46401689115214
  Heat of formation [kcal/mol]:                               -87.26562725096321

  outer SCF iter =    1 RMS gradient =   0.00E+00 energy =        -24.8149162831
  outer SCF loop converged in   1 iterations or    8 steps


 ENERGY| Total FORCE_EVAL ( QS ) energy [a.u.]:              -24.814916283124603

 --------  Informations at step =     9 ------------
  Optimization Method        =                 BFGS
  Total Energy               =       -24.8149162831
  Real energy change         =        -0.0000316772
  Predicted change in energy =        -0.0000237300
  Scaling factor             =         0.5786882281
  Step size                  =         0.0258886540
  Trust radius               =         0.1000000000
  Decrease in energy         =                  YES
  Used time                  =                0.057

  Convergence check :
  Max. step size             =         0.0258886540
  Conv. limit for step size  =         0.0030000000
  Convergence in step size   =                   NO
  RMS step size              =         0.0091291459
  Conv. limit for RMS step   =         0.0015000000
  Convergence in RMS step    =                   NO
  Max. gradient              =         0.0014836557
  Conv. limit for gradients  =         0.0001000000
  Conv. for gradients        =                   NO
  RMS gradient               =         0.0004959955
  Conv. limit for RMS grad.  =         0.0003000000
  Conv. for gradients        =                   NO
 ---------------------------------------------------

 --------------------------
 OPTIMIZATION STEP:     10
 --------------------------

 Number of electrons:                                                         22
 Number of occupied orbitals:                                                 11
 Number of molecular orbitals:                                                11

 Number of orbital functions:                                                 25
 Number of independent orbital functions:                                     25

 Extrapolation method: ASPC


 SCF WAVEFUNCTION OPTIMIZATION

  Step     Update method      Time    Convergence         Total energy    Change
  ------------------------------------------------------------------------------
     1 P_Mix/Diag. 0.40E+00    0.0     0.00512322       -24.8148752588 -2.48E+01
     2 P_Mix/Diag. 0.40E+00    0.0     0.00402752       -24.8148911699 -1.59E-05
     3 DIIS/Diag.  0.25E-03    0.0     0.00567742       -24.8149033001 -1.21E-05
     4 DIIS/Diag.  0.15E-03    0.0     0.00029482       -24.8149318280 -2.85E-05
     5 DIIS/Diag.  0.23E-03    0.0     0.00021550       -24.8149315440  2.84E-07
     6 DIIS/Diag.  0.17E-03    0.0     0.00062751       -24.8149317550 -2.11E-07
     7 DIIS/Diag.  0.35E-05    0.0     0.00001002       -24.8149320097 -2.55E-07
     8 DIIS/Diag.  0.93E-06    0.0     0.00000261       -24.8149320098 -9.32E-11

  *** SCF run converged in     8 steps ***


  Core-core repulsion energy [eV]:                            831.61440580406440
  Core Hamiltonian energy [eV]:                             -1114.03372975265893
  Two-electron integral energy [eV]:                         -785.65863268817657
  Electronic energy [eV]:                                   -1506.86304609674721

  Total energy [eV]:                                         -675.24864029268281

  Atomic reference energy [eV]:                               671.46401689115214
  Heat of formation [kcal/mol]:                               -87.27549589154401

  outer SCF iter =    1 RMS gradient =   0.00E+00 energy =        -24.8149320098
  outer SCF loop converged in   1 iterations or    8 steps


 ENERGY| Total FORCE_EVAL ( QS ) energy [a.u.]:              -24.814932009795172

 --------  Informations at step =    10 ------------
  Optimization Method        =                 BFGS
  Total Energy               =       -24.8149320098
  Real energy change         =        -0.0000157267
  Predicted change in energy =        -0.0000106040
  Scaling factor             =         0.5786882281
  Step size                  =         0.0131405207
  Trust radius               =         0.1000000000
  Decrease in energy         =                  YES
  Used time                  =                0.063

  Convergence check :
  Max. step size             =         0.0131405207
  Conv. limit for step size  =         0.0030000000
  Convergence in step size   =                   NO
  RMS step size              =         0.0061097693
  Conv. limit for RMS step   =         0.0015000000
  Convergence in RMS step    =                   NO
  Max. gradient              =         0.0009476592
  Conv. limit for gradients  =         0.0001000000
  Conv. for gradients        =                   NO
  RMS gradient               =         0.0003403528
  Conv. limit for RMS grad.  =         0.0003000000
  Conv. for gradients        =                   NO
 ---------------------------------------------------

 --------------------------
 OPTIMIZATION STEP:     11
 --------------------------

 Number of electrons:                                                         22
 Number of occupied orbitals:                                                 11
 Number of molecular orbitals:                                                11

 Number of orbital functions:                                                 25
 Number of independent orbital functions:                                     25

 Extrapolation method: ASPC


 SCF WAVEFUNCTION OPTIMIZATION

  Step     Update method      Time    Convergence         Total energy    Change
  ------------------------------------------------------------------------------
     1 P_Mix/Diag. 0.40E+00    0.0     0.00199359       -24.8149364575 -2.48E+01
     2 P_Mix/Diag. 0.40E+00    0.0     0.00153605       -24.8149399182 -3.46E-06
     3 DIIS/Diag.  0.16E-03    0.0     0.00207011       -24.8149425965 -2.68E-06
     4 DIIS/Diag.  0.50E-04    0.0     0.00011198       -24.8149489889 -6.39E-06
     5 DIIS/Diag.  0.80E-04    0.0     0.00008295       -24.8149489407  4.82E-08
     6 DIIS/Diag.  0.58E-04    0.0     0.00022023       -24.8149489770 -3.63E-08
     7 DIIS/Diag.  0.16E-05    0.0     0.00000557       -24.8149490156 -3.86E-08

  *** SCF run converged in     7 steps ***


  Core-core repulsion energy [eV]:                            831.53624470179625
  Core Hamiltonian energy [eV]:                             -1114.03872707372057
  Two-electron integral energy [eV]:                         -785.49324134233041
  Electronic energy [eV]:                                   -1506.78534774488571

  Total energy [eV]:                                         -675.24910304308969

  Atomic reference energy [eV]:                               671.46401689115214
  Heat of formation [kcal/mol]:                               -87.28616717028186

  outer SCF iter =    1 RMS gradient =   0.00E+00 energy =        -24.8149490156
  outer SCF loop converged in   1 iterations or    7 steps


 ENERGY| Total FORCE_EVAL ( QS ) energy [a.u.]:              -24.814949015577646

 --------  Informations at step =    11 ------------
  Optimization Method        =                 BFGS
  Total Energy               =       -24.8149490156
  Real energy change         =        -0.0000170058
  Predicted change in energy =        -0.0000114279
  Scaling factor             =         0.5786882281
  Step size                  =         0.0188970499
  Trust radius               =         0.1000000000
  Decrease in energy         =                  YES
  Used time                  =                0.056

  Convergence check :
  Max. step size             =         0.0188970499
  Conv. limit for step size  =         0.0030000000
  Convergence in step size   =                   NO
  RMS step size              =         0.0079391149
  Conv. limit for RMS step   =         0.0015000000
  Convergence in RMS step    =                   NO
  Max. gradient              =         0.0007079445
  Conv. limit for gradients  =         0.0001000000
  Conv. for gradients        =                   NO
  RMS gradient               =         0.0002841549
  Conv. limit for RMS grad.  =         0.0003000000
  Conv. in RMS gradients     =                  YES
 ---------------------------------------------------

 --------------------------
 OPTIMIZATION STEP:     12
 --------------------------

 Number of electrons:                                                         22
 Number of occupied orbitals:                                                 11
 Number of molecular orbitals:                                                11

 Number of orbital functions:                                                 25
 Number of independent orbital functions:                                     25

 Extrapolation method: ASPC


 SCF WAVEFUNCTION OPTIMIZATION

  Step     Update method      Time    Convergence         Total energy    Change
  ------------------------------------------------------------------------------
     1 P_Mix/Diag. 0.40E+00    0.0     0.00065253       -24.8149678505 -2.48E+01
     2 P_Mix/Diag. 0.40E+00    0.0     0.00051149       -24.8149680535 -2.03E-07
     3 DIIS/Diag.  0.27E-04    0.0     0.00068723       -24.8149682029 -1.49E-07
     4 DIIS/Diag.  0.14E-04    0.0     0.00004338       -24.8149685284 -3.26E-07
     5 DIIS/Diag.  0.21E-04    0.0     0.00002647       -24.8149685251  3.37E-09
     6 DIIS/Diag.  0.16E-04    0.0     0.00007139       -24.8149685275 -2.47E-09
     7 DIIS/Diag.  0.28E-06    0.0     0.00000071       -24.8149685306 -3.07E-09

  *** SCF run converged in     7 steps ***


  Core-core repulsion energy [eV]:                            831.96979470172369
  Core Hamiltonian energy [eV]:                             -1114.06071237721449
  Two-electron integral energy [eV]:                         -786.31743279748230
  Electronic energy [eV]:                                   -1507.21942877595552

  Total energy [eV]:                                         -675.24963407423184

  Atomic reference energy [eV]:                               671.46401689115214
  Heat of formation [kcal/mol]:                               -87.29841304030663

  outer SCF iter =    1 RMS gradient =   0.00E+00 energy =        -24.8149685306
  outer SCF loop converged in   1 iterations or    7 steps


 ENERGY| Total FORCE_EVAL ( QS ) energy [a.u.]:              -24.814968530590239

 --------  Informations at step =    12 ------------
  Optimization Method        =                 BFGS
  Total Energy               =       -24.8149685306
  Real energy change         =        -0.0000195150
  Predicted change in energy =        -0.0000131885
  Scaling factor             =         0.5786882281
  Step size                  =         0.0259864521
  Trust radius               =         0.1000000000
  Decrease in energy         =                  YES
  Used time                  =                0.052

  Convergence check :
  Max. step size             =         0.0259864521
  Conv. limit for step size  =         0.0030000000
  Convergence in step size   =                   NO
  RMS step size              =         0.0109699238
  Conv. limit for RMS step   =         0.0015000000
  Convergence in RMS step    =                   NO
  Max. gradient              =         0.0011092389
  Conv. limit for gradients  =         0.0001000000
  Conv. for gradients        =                   NO
  RMS gradient               =         0.0004365109
  Conv. limit for RMS grad.  =         0.0003000000
  Conv. for gradients        =                   NO
 ---------------------------------------------------

 --------------------------
 OPTIMIZATION STEP:     13
 --------------------------

 Number of electrons:                                                         22
 Number of occupied orbitals:                                                 11
 Number of molecular orbitals:                                                11

 Number of orbital functions:                                                 25
 Number of independent orbital functions:                                     25

 Extrapolation method: ASPC


 SCF WAVEFUNCTION OPTIMIZATION

  Step     Update method      Time    Convergence         Total energy    Change
  ------------------------------------------------------------------------------
     1 P_Mix/Diag. 0.40E+00    0.0     0.00045380       -24.8149866772 -2.48E+01
     2 P_Mix/Diag. 0.40E+00    0.0     0.00035246       -24.8149867876 -1.10E-07
     3 DIIS/Diag.  0.32E-04    0.0     0.00048720       -24.8149868733 -8.57E-08
     4 DIIS/Diag.  0.17E-04    0.0     0.00003110       -24.8149870765 -2.03E-07
     5 DIIS/Diag.  0.25E-04    0.0     0.00002226       -24.8149870740  2.47E-09
     6 DIIS/Diag.  0.20E-04    0.0     0.00007326       -24.8149870758 -1.81E-09
     7 DIIS/Diag.  0.25E-06    0.0     0.00000056       -24.8149870783 -2.53E-09

  *** SCF run converged in     7 steps ***


  Core-core repulsion energy [eV]:                            832.79761756894163
  Core Hamiltonian energy [eV]:                             -1114.09119801283168
  Two-electron integral energy [eV]:                         -787.91311668090520
  Electronic energy [eV]:                                   -1508.04775635328429

  Total energy [eV]:                                         -675.25013878434254

  Atomic reference energy [eV]:                               671.46401689115214
  Heat of formation [kcal/mol]:                               -87.31005193287768

  outer SCF iter =    1 RMS gradient =   0.00E+00 energy =        -24.8149870783
  outer SCF loop converged in   1 iterations or    7 steps


 ENERGY| Total FORCE_EVAL ( QS ) energy [a.u.]:              -24.814987078345879

 --------  Informations at step =    13 ------------
  Optimization Method        =                 BFGS
  Total Energy               =       -24.8149870783
  Real energy change         =        -0.0000185478
  Predicted change in energy =        -0.0000133727
  Scaling factor             =         0.5786882281
  Step size                  =         0.0294163989
  Trust radius               =         0.1000000000
  Decrease in energy         =                  YES
  Used time                  =                0.057

  Convergence check :
  Max. step size             =         0.0294163989
  Conv. limit for step size  =         0.0030000000
  Convergence in step size   =                   NO
  RMS step size              =         0.0130422319
  Conv. limit for RMS step   =         0.0015000000
  Convergence in RMS step    =                   NO
  Max. gradient              =         0.0015482063
  Conv. limit for gradients  =         0.0001000000
  Conv. for gradients        =                   NO
  RMS gradient               =         0.0005363667
  Conv. limit for RMS grad.  =         0.0003000000
  Conv. for gradients        =                   NO
 ---------------------------------------------------

 --------------------------
 OPTIMIZATION STEP:     14
 --------------------------

 Number of electrons:                                                         22
 Number of occupied orbitals:                                                 11
 Number of molecular orbitals:                                                11

 Number of orbital functions:                                                 25
 Number of independent orbital functions:                                     25

 Extrapolation method: ASPC


 SCF WAVEFUNCTION OPTIMIZATION

  Step     Update method      Time    Convergence         Total energy    Change
  ------------------------------------------------------------------------------
     1 P_Mix/Diag. 0.40E+00    0.0     0.00190492       -24.8149862939 -2.48E+01
     2 P_Mix/Diag. 0.40E+00    0.0     0.00147038       -24.8149892343 -2.94E-06
     3 DIIS/Diag.  0.18E-03    0.0     0.00199468       -24.8149915328 -2.30E-06
     4 DIIS/Diag.  0.39E-04    0.0     0.00012400       -24.8149970908 -5.56E-06
     5 DIIS/Diag.  0.77E-04    0.0     0.00008897       -24.8149970506  4.02E-08
     6 DIIS/Diag.  0.51E-04    0.0     0.00018959       -24.8149970818 -3.13E-08
     7 DIIS/Diag.  0.13E-05    0.0     0.00000243       -24.8149971086 -2.68E-08

  *** SCF run converged in     7 steps ***


  Core-core repulsion energy [eV]:                            833.41312776838572
  Core Hamiltonian energy [eV]:                             -1114.10595878234017
  Two-electron integral energy [eV]:                         -789.11516141588618
  Electronic energy [eV]:                                   -1508.66353949028326

  Total energy [eV]:                                         -675.25041172189754

  Atomic reference energy [eV]:                               671.46401689115214
  Heat of formation [kcal/mol]:                               -87.31634602291926

  outer SCF iter =    1 RMS gradient =   0.00E+00 energy =        -24.8149971086
  outer SCF loop converged in   1 iterations or    7 steps


 ENERGY| Total FORCE_EVAL ( QS ) energy [a.u.]:              -24.814997108627107

 --------  Informations at step =    14 ------------
  Optimization Method        =                 BFGS
  Total Energy               =       -24.8149971086
  Real energy change         =        -0.0000100303
  Predicted change in energy =        -0.0000075350
  Scaling factor             =         0.5786882281
  Step size                  =         0.0177213457
  Trust radius               =         0.1000000000
  Decrease in energy         =                  YES
  Used time                  =                0.053

  Convergence check :
  Max. step size             =         0.0177213457
  Conv. limit for step size  =         0.0030000000
  Convergence in step size   =                   NO
  RMS step size              =         0.0085991217
  Conv. limit for RMS step   =         0.0015000000
  Convergence in RMS step    =                   NO
  Max. gradient              =         0.0013322945
  Conv. limit for gradients  =         0.0001000000
  Conv. for gradients        =                   NO
  RMS gradient               =         0.0004401942
  Conv. limit for RMS grad.  =         0.0003000000
  Conv. for gradients        =                   NO
 ---------------------------------------------------

 --------------------------
 OPTIMIZATION STEP:     15
 --------------------------

 Number of electrons:                                                         22
 Number of occupied orbitals:                                                 11
 Number of molecular orbitals:                                                11

 Number of orbital functions:                                                 25
 Number of independent orbital functions:                                     25

 Extrapolation method: ASPC


 SCF WAVEFUNCTION OPTIMIZATION

  Step     Update method      Time    Convergence         Total energy    Change
  ------------------------------------------------------------------------------
     1 P_Mix/Diag. 0.40E+00    0.0     0.00035593       -24.8150011708 -2.48E+01
     2 P_Mix/Diag. 0.40E+00    0.0     0.00027344       -24.8150012608 -9.00E-08
     3 DIIS/Diag.  0.23E-04    0.0     0.00036015       -24.8150013296 -6.88E-08
     4 DIIS/Diag.  0.13E-04    0.0     0.00002347       -24.8150014888 -1.59E-07
     5 DIIS/Diag.  0.20E-04    0.0     0.00001713       -24.8150014869  1.92E-09
     6 DIIS/Diag.  0.15E-04    0.0     0.00005530       -24.8150014883 -1.41E-09
     7 DIIS/Diag.  0.27E-06    0.0     0.00000057       -24.8150014902 -1.91E-09

  *** SCF run converged in     7 steps ***


  Core-core repulsion energy [eV]:                            833.56633208189646
  Core Hamiltonian energy [eV]:                             -1114.09924605744254
  Two-electron integral energy [eV]:                         -789.43523394912006
  Electronic energy [eV]:                                   -1508.81686303200263

  Total energy [eV]:                                         -675.25053095010617

  Atomic reference energy [eV]:                               671.46401689115214
  Heat of formation [kcal/mol]:                               -87.31909549094398

  outer SCF iter =    1 RMS gradient =   0.00E+00 energy =        -24.8150014902
  outer SCF loop converged in   1 iterations or    7 steps


 ENERGY| Total FORCE_EVAL ( QS ) energy [a.u.]:              -24.815001490173199

 --------  Informations at step =    15 ------------
  Optimization Method        =                 BFGS
  Total Energy               =       -24.8150014902
  Real energy change         =        -0.0000043815
  Predicted change in energy =        -0.0000032012
  Scaling factor             =         0.5786882281
  Step size                  =         0.0056533497
  Trust radius               =         0.1000000000
  Decrease in energy         =                  YES
  Used time                  =                0.048

  Convergence check :
  Max. step size             =         0.0056533497
  Conv. limit for step size  =         0.0030000000
  Convergence in step size   =                   NO
  RMS step size              =         0.0031554461
  Conv. limit for RMS step   =         0.0015000000
  Convergence in RMS step    =                   NO
  Max. gradient              =         0.0008017539
  Conv. limit for gradients  =         0.0001000000
  Conv. for gradients        =                   NO
  RMS gradient               =         0.0002761648
  Conv. limit for RMS grad.  =         0.0003000000
  Conv. in RMS gradients     =                  YES
 ---------------------------------------------------

 --------------------------
 OPTIMIZATION STEP:     16
 --------------------------

 Number of electrons:                                                         22
 Number of occupied orbitals:                                                 11
 Number of molecular orbitals:                                                11

 Number of orbital functions:                                                 25
 Number of independent orbital functions:                                     25

 Extrapolation method: ASPC


 SCF WAVEFUNCTION OPTIMIZATION

  Step     Update method      Time    Convergence         Total energy    Change
  ------------------------------------------------------------------------------
     1 P_Mix/Diag. 0.40E+00    0.0     0.00037056       -24.8150032122 -2.48E+01
     2 P_Mix/Diag. 0.40E+00    0.0     0.00028623       -24.8150033277 -1.15E-07
     3 DIIS/Diag.  0.36E-04    0.0     0.00039328       -24.8150034179 -9.02E-08
     4 DIIS/Diag.  0.80E-05    0.0     0.00002453       -24.8150036356 -2.18E-07
     5 DIIS/Diag.  0.15E-04    0.0     0.00004956       -24.8150036340  1.57E-09
     6 DIIS/Diag.  0.13E-05    0.0     0.00000661       -24.8150036363 -2.24E-09

  *** SCF run converged in     6 steps ***


  Core-core repulsion energy [eV]:                            833.45281795534083
  Core Hamiltonian energy [eV]:                             -1114.08213709769234
  Two-electron integral energy [eV]:                         -789.24254041258826
  Electronic energy [eV]:                                   -1508.70340730398652

  Total energy [eV]:                                         -675.25058934864558

  Atomic reference energy [eV]:                               671.46401689115214
  Heat of formation [kcal/mol]:                               -87.32044219336311

  outer SCF iter =    1 RMS gradient =   0.00E+00 energy =        -24.8150036363
  outer SCF loop converged in   1 iterations or    6 steps


 ENERGY| Total FORCE_EVAL ( QS ) energy [a.u.]:              -24.815003636299036

 --------  Informations at step =    16 ------------
  Optimization Method        =                 BFGS
  Total Energy               =       -24.8150036363
  Real energy change         =        -0.0000021461
  Predicted change in energy =        -0.0000016286
  Scaling factor             =         0.5786882281
  Step size                  =         0.0024405560
  Trust radius               =         0.1000000000
  Decrease in energy         =                  YES
  Used time                  =                0.045

  Convergence check :
  Max. step size             =         0.0024405560
  Conv. limit for step size  =         0.0030000000
  Convergence in step size   =                  YES
  RMS step size              =         0.0009742213
  Conv. limit for RMS step   =         0.0015000000
  Convergence in RMS step    =                  YES
  Max. gradient              =         0.0002687202
  Conv. limit for gradients  =         0.0001000000
  Conv. for gradients        =                   NO
  RMS gradient               =         0.0001312660
  Conv. limit for RMS grad.  =         0.0003000000
  Conv. in RMS gradients     =                  YES
 ---------------------------------------------------

 --------------------------
 OPTIMIZATION STEP:     17
 --------------------------

 Number of electrons:                                                         22
 Number of occupied orbitals:                                                 11
 Number of molecular orbitals:                                                11

 Number of orbital functions:                                                 25
 Number of independent orbital functions:                                     25

 Extrapolation method: ASPC


 SCF WAVEFUNCTION OPTIMIZATION

  Step     Update method      Time    Convergence         Total energy    Change
  ------------------------------------------------------------------------------
     1 P_Mix/Diag. 0.40E+00    0.0     0.00029856       -24.8150041356 -2.48E+01
     2 P_Mix/Diag. 0.40E+00    0.0     0.00023592       -24.8150041893 -5.36E-08
     3 DIIS/Diag.  0.24E-04    0.0     0.00034702       -24.8150042317 -4.25E-08
     4 DIIS/Diag.  0.12E-04    0.0     0.00002218       -24.8150043365 -1.05E-07
     5 DIIS/Diag.  0.17E-04    0.0     0.00005780       -24.8150043352  1.27E-09
     6 DIIS/Diag.  0.26E-05    0.0     0.00001090       -24.8150043374 -2.20E-09
     7 DIIS/Diag.  0.63E-06    0.0     0.00000215       -24.8150043375 -4.04E-11

  *** SCF run converged in     7 steps ***


  Core-core repulsion energy [eV]:                            833.29628801593014
  Core Hamiltonian energy [eV]:                             -1114.06884755845817
  Two-electron integral energy [eV]:                         -788.95609777223831
  Electronic energy [eV]:                                   -1508.54689644457721

  Total energy [eV]:                                         -675.25060842864707

  Atomic reference energy [eV]:                               671.46401689115214
  Heat of formation [kcal/mol]:                               -87.32088218868412

  outer SCF iter =    1 RMS gradient =   0.00E+00 energy =        -24.8150043375
  outer SCF loop converged in   1 iterations or    7 steps


 ENERGY| Total FORCE_EVAL ( QS ) energy [a.u.]:              -24.815004337459303

 --------  Informations at step =    17 ------------
  Optimization Method        =                 BFGS
  Total Energy               =       -24.8150043375
  Real energy change         =        -0.0000007012
  Predicted change in energy =        -0.0000005540
  Scaling factor             =         0.5786882281
  Step size                  =         0.0011390999
  Trust radius               =         0.1000000000
  Decrease in energy         =                  YES
  Used time                  =                0.039

  Convergence check :
  Max. step size             =         0.0011390999
  Conv. limit for step size  =         0.0030000000
  Convergence in step size   =                  YES
  RMS step size              =         0.0005740782
  Conv. limit for RMS step   =         0.0015000000
  Convergence in RMS step    =                  YES
  Max. gradient              =         0.0001243534
  Conv. limit for gradients  =         0.0001000000
  Conv. for gradients        =                   NO
  RMS gradient               =         0.0000560490
  Conv. limit for RMS grad.  =         0.0003000000
  Conv. in RMS gradients     =                  YES
 ---------------------------------------------------

 --------------------------
 OPTIMIZATION STEP:     18
 --------------------------

 Number of electrons:                                                         22
 Number of occupied orbitals:                                                 11
 Number of molecular orbitals:                                                11

 Number of orbital functions:                                                 25
 Number of independent orbital functions:                                     25

 Extrapolation method: ASPC


 SCF WAVEFUNCTION OPTIMIZATION

  Step     Update method      Time    Convergence         Total energy    Change
  ------------------------------------------------------------------------------
     1 P_Mix/Diag. 0.40E+00    0.0     0.00007442       -24.8150044593 -2.48E+01
     2 P_Mix/Diag. 0.40E+00    0.0     0.00005495       -24.8150044644 -5.12E-09
     3 DIIS/Diag.  0.50E-05    0.0     0.00006648       -24.8150044683 -3.86E-09
     4 DIIS/Diag.  0.19E-05    0.0     0.00000264       -24.8150044768 -8.54E-09

  *** SCF run converged in     4 steps ***


  Core-core repulsion energy [eV]:                            833.22848642930376
  Core Hamiltonian energy [eV]:                             -1114.06439958118858
  Two-electron integral energy [eV]:                         -788.82939813914390
  Electronic energy [eV]:                                   -1508.47909865076053

  Total energy [eV]:                                         -675.25061222145678

  Atomic reference energy [eV]:                               671.46401689115214
  Heat of formation [kcal/mol]:                               -87.32096965296196

  outer SCF iter =    1 RMS gradient =   0.00E+00 energy =        -24.8150044768
  outer SCF loop converged in   1 iterations or    4 steps


 ENERGY| Total FORCE_EVAL ( QS ) energy [a.u.]:              -24.815004476868793

 --------  Informations at step =    18 ------------
  Optimization Method        =                 BFGS
  Total Energy               =       -24.8150044769
  Real energy change         =        -0.0000001394
  Predicted change in energy =        -0.0000001164
  Scaling factor             =         0.5786882281
  Step size                  =         0.0006887980
  Trust radius               =         0.1000000000
  Decrease in energy         =                  YES
  Used time                  =                0.062

  Convergence check :
  Max. step size             =         0.0006887980
  Conv. limit for step size  =         0.0030000000
  Convergence in step size   =                  YES
  RMS step size              =         0.0004203052
  Conv. limit for RMS step   =         0.0015000000
  Convergence in RMS step    =                  YES
  Max. gradient              =         0.0000489564
  Conv. limit for gradients  =         0.0001000000
  Conv. in gradients         =                  YES
  RMS gradient               =         0.0000213265
  Conv. limit for RMS grad.  =         0.0003000000
  Conv. in RMS gradients     =                  YES
 ---------------------------------------------------

 *******************************************************************************
 ***                    GEOMETRY OPTIMIZATION COMPLETED                      ***
 *******************************************************************************

                    Reevaluating energy at the minimum

 Number of electrons:                                                         22
 Number of occupied orbitals:                                                 11
 Number of molecular orbitals:                                                11

 Number of orbital functions:                                                 25
 Number of independent orbital functions:                                     25

 Extrapolation method: ASPC


 SCF WAVEFUNCTION OPTIMIZATION

  Step     Update method      Time    Convergence         Total energy    Change
  ------------------------------------------------------------------------------
     1 P_Mix/Diag. 0.40E+00    0.0     0.00017787       -24.8150044071 -2.48E+01
     2 P_Mix/Diag. 0.40E+00    0.0     0.00013769       -24.8150044259 -1.88E-08
     3 DIIS/Diag.  0.14E-04    0.0     0.00018885       -24.8150044407 -1.48E-08
     4 DIIS/Diag.  0.43E-05    0.0     0.00000855       -24.8150044767 -3.60E-08

  *** SCF run converged in     4 steps ***


  Core-core repulsion energy [eV]:                            833.22848642930376
  Core Hamiltonian energy [eV]:                             -1114.06504637408671
  Two-electron integral energy [eV]:                         -788.82810454612456
  Electronic energy [eV]:                                   -1508.47909864714916

  Total energy [eV]:                                         -675.25061221784540

  Atomic reference energy [eV]:                               671.46401689115214
  Heat of formation [kcal/mol]:                               -87.32096956967970

  outer SCF iter =    1 RMS gradient =   0.00E+00 energy =        -24.8150044767
  outer SCF loop converged in   1 iterations or    4 steps


 ENERGY| Total FORCE_EVAL ( QS ) energy [a.u.]:              -24.815004476707305

 -------------------------------------------------------------------------------
 -                                                                             -
 -                                DBCSR STATISTICS                             -
 -                                                                             -
 -------------------------------------------------------------------------------
 COUNTER                                    TOTAL       BLAS       SMM       ACC
 flops     4 x     1 x    11                14432       0.0%    100.0%      0.0%
 flops     1 x     1 x    11                21648       0.0%    100.0%      0.0%
 flops     1 x     4 x    11                28864       0.0%    100.0%      0.0%
 flops     4 x     4 x    11                57728       0.0%    100.0%      0.0%
 flops     9 x     1 x    11                97416       0.0%    100.0%      0.0%
 flops     1 x     9 x    11                97416       0.0%    100.0%      0.0%
 flops     4 x     9 x    11               129888       0.0%    100.0%      0.0%
 flops     9 x     4 x    11               129888       0.0%    100.0%      0.0%
 flops     9 x     9 x    11               876744       0.0%    100.0%      0.0%
 flops inhomo. stacks                           0       0.0%      0.0%      0.0%
 flops total                         1.454024E+06       0.0%    100.0%      0.0%
 flops max/rank                      1.454024E+06       0.0%    100.0%      0.0%
 matmuls inhomo. stacks                         0       0.0%      0.0%      0.0%
 matmuls total                               3444       0.0%    100.0%      0.0%
 number of processed stacks                  1476       0.0%    100.0%      0.0%
 average stack size                                     0.0       2.3       0.0
 marketing flops                     2.255000E+06
 -------------------------------------------------------------------------------
 # multiplications                            164
 max memory usage/rank             101.818368E+06
 # max total images/rank                        1
 # max 3D layers                                1
 # MPI messages exchanged                       0
 -------------------------------------------------------------------------------
 -                                                                             -
 -                      DBCSR MESSAGE PASSING PERFORMANCE                      -
 -                                                                             -
 -------------------------------------------------------------------------------
 ROUTINE             CALLS      AVE VOLUME [Bytes]
 MP_Bcast               10                     12.
 MP_Allreduce         1388                    219.
 MP_Alltoall          3216                   2511.
 MP_ISend              656                    120.
 MP_IRecv              656                    120.
 -------------------------------------------------------------------------------

 -------------------------------------------------------------------------------
 -                                                                             -
 -                                GRID STATISTICS                              -
 -                                                                             -
 -------------------------------------------------------------------------------
 LP    KERNEL             BACKEND                              COUNT     PERCENT
 -------------------------------------------------------------------------------

 MEMORY| Estimated peak process memory [MiB]                                  98

 -------------------------------------------------------------------------------
 -                                                                             -
 -                         MESSAGE PASSING PERFORMANCE                         -
 -                                                                             -
 -------------------------------------------------------------------------------

 ROUTINE             CALLS      AVE VOLUME [Bytes]
 MP_Group                1
 MP_Bcast              163                      4.
 MP_Allreduce         2460                     29.
 MP_Sync               165
[...]
     3 DIIS/Diag.  0.24E-04    0.0     0.00034702       -24.8150042317 -4.25E-08
     4 DIIS/Diag.  0.12E-04    0.0     0.00002218       -24.8150043365 -1.05E-07
     5 DIIS/Diag.  0.17E-04    0.0     0.00005780       -24.8150043352  1.27E-09
     6 DIIS/Diag.  0.26E-05    0.0     0.00001090       -24.8150043374 -2.20E-09
     7 DIIS/Diag.  0.63E-06    0.0     0.00000215       -24.8150043375 -4.04E-11

  *** SCF run converged in     7 steps ***


  Core-core repulsion energy [eV]:                            833.29628801593014
  Core Hamiltonian energy [eV]:                             -1114.06884755845817
  Two-electron integral energy [eV]:                         -788.95609777223831
  Electronic energy [eV]:                                   -1508.54689644457721

  Total energy [eV]:                                         -675.25060842864707

  Atomic reference energy [eV]:                               671.46401689115214
  Heat of formation [kcal/mol]:                               -87.32088218868412

  outer SCF iter =    1 RMS gradient =   0.00E+00 energy =        -24.8150043375
  outer SCF loop converged in   1 iterations or    7 steps


 ENERGY| Total FORCE_EVAL ( QS ) energy [a.u.]:              -24.815004337459303

 --------  Informations at step =    17 ------------
  Optimization Method        =                 BFGS
  Total Energy               =       -24.8150043375
  Real energy change         =        -0.0000007012
  Predicted change in energy =        -0.0000005540
  Scaling factor             =         0.5786882281
  Step size                  =         0.0011390999
  Trust radius               =         0.1000000000
  Decrease in energy         =                  YES
  Used time                  =                0.040

  Convergence check :
  Max. step size             =         0.0011390999
  Conv. limit for step size  =         0.0030000000
  Convergence in step size   =                  YES
  RMS step size              =         0.0005740782
  Conv. limit for RMS step   =         0.0015000000
  Convergence in RMS step    =                  YES
  Max. gradient              =         0.0001243534
  Conv. limit for gradients  =         0.0001000000
  Conv. for gradients        =                   NO
  RMS gradient               =         0.0000560490
  Conv. limit for RMS grad.  =         0.0003000000
  Conv. in RMS gradients     =                  YES
 ---------------------------------------------------

 --------------------------
 OPTIMIZATION STEP:     18
 --------------------------

 Number of electrons:                                                         22
 Number of occupied orbitals:                                                 11
 Number of molecular orbitals:                                                11

 Number of orbital functions:                                                 25
 Number of independent orbital functions:                                     25

 Extrapolation method: ASPC


 SCF WAVEFUNCTION OPTIMIZATION

  Step     Update method      Time    Convergence         Total energy    Change
  ------------------------------------------------------------------------------
     1 P_Mix/Diag. 0.40E+00    0.0     0.00007442       -24.8150044593 -2.48E+01
     2 P_Mix/Diag. 0.40E+00    0.0     0.00005495       -24.8150044644 -5.12E-09
     3 DIIS/Diag.  0.50E-05    0.0     0.00006648       -24.8150044683 -3.86E-09
     4 DIIS/Diag.  0.19E-05    0.0     0.00000264       -24.8150044768 -8.54E-09

  *** SCF run converged in     4 steps ***


  Core-core repulsion energy [eV]:                            833.22848642930376
  Core Hamiltonian energy [eV]:                             -1114.06439958118858
  Two-electron integral energy [eV]:                         -788.82939813914390
  Electronic energy [eV]:                                   -1508.47909865076053

  Total energy [eV]:                                         -675.25061222145678

  Atomic reference energy [eV]:                               671.46401689115214
  Heat of formation [kcal/mol]:                               -87.32096965296196

  outer SCF iter =    1 RMS gradient =   0.00E+00 energy =        -24.8150044768
  outer SCF loop converged in   1 iterations or    4 steps


 ENERGY| Total FORCE_EVAL ( QS ) energy [a.u.]:              -24.815004476868793

 --------  Informations at step =    18 ------------
  Optimization Method        =                 BFGS
  Total Energy               =       -24.8150044769
  Real energy change         =        -0.0000001394
  Predicted change in energy =        -0.0000001164
  Scaling factor             =         0.5786882281
  Step size                  =         0.0006887980
  Trust radius               =         0.1000000000
  Decrease in energy         =                  YES
  Used time                  =                0.038

  Convergence check :
  Max. step size             =         0.0006887980
  Conv. limit for step size  =         0.0030000000
  Convergence in step size   =                  YES
  RMS step size              =         0.0004203052
  Conv. limit for RMS step   =         0.0015000000
  Convergence in RMS step    =                  YES
  Max. gradient              =         0.0000489564
  Conv. limit for gradients  =         0.0001000000
  Conv. in gradients         =                  YES
  RMS gradient               =         0.0000213265
  Conv. limit for RMS grad.  =         0.0003000000
  Conv. in RMS gradients     =                  YES
 ---------------------------------------------------

 *******************************************************************************
 ***                    GEOMETRY OPTIMIZATION COMPLETED                      ***
 *******************************************************************************

                    Reevaluating energy at the minimum

 Number of electrons:                                                         22
 Number of occupied orbitals:                                                 11
 Number of molecular orbitals:                                                11

 Number of orbital functions:                                                 25
 Number of independent orbital functions:                                     25

 Extrapolation method: ASPC


 SCF WAVEFUNCTION OPTIMIZATION

  Step     Update method      Time    Convergence         Total energy    Change
  ------------------------------------------------------------------------------
     1 P_Mix/Diag. 0.40E+00    0.0     0.00017787       -24.8150044071 -2.48E+01
     2 P_Mix/Diag. 0.40E+00    0.0     0.00013769       -24.8150044259 -1.88E-08
     3 DIIS/Diag.  0.14E-04    0.0     0.00018885       -24.8150044407 -1.48E-08
     4 DIIS/Diag.  0.43E-05    0.0     0.00000855       -24.8150044767 -3.60E-08

  *** SCF run converged in     4 steps ***


  Core-core repulsion energy [eV]:                            833.22848642930376
  Core Hamiltonian energy [eV]:                             -1114.06504637408671
  Two-electron integral energy [eV]:                         -788.82810454612456
  Electronic energy [eV]:                                   -1508.47909864714916

  Total energy [eV]:                                         -675.25061221784540

  Atomic reference energy [eV]:                               671.46401689115214
  Heat of formation [kcal/mol]:                               -87.32096956967970

  outer SCF iter =    1 RMS gradient =   0.00E+00 energy =        -24.8150044767
  outer SCF loop converged in   1 iterations or    4 steps


 ENERGY| Total FORCE_EVAL ( QS ) energy [a.u.]:              -24.815004476707305

 -------------------------------------------------------------------------------
 -                                                                             -
 -                                DBCSR STATISTICS                             -
 -                                                                             -
 -------------------------------------------------------------------------------
 COUNTER                                    TOTAL       BLAS       SMM       ACC
 flops     4 x     1 x    11                14432       0.0%    100.0%      0.0%
 flops     1 x     1 x    11                21648       0.0%    100.0%      0.0%
 flops     1 x     4 x    11                28864       0.0%    100.0%      0.0%
 flops     4 x     4 x    11                57728       0.0%    100.0%      0.0%
 flops     9 x     1 x    11                97416       0.0%    100.0%      0.0%
 flops     1 x     9 x    11                97416       0.0%    100.0%      0.0%
 flops     4 x     9 x    11               129888       0.0%    100.0%      0.0%
 flops     9 x     4 x    11               129888       0.0%    100.0%      0.0%
 flops     9 x     9 x    11               876744       0.0%    100.0%      0.0%
 flops inhomo. stacks                           0       0.0%      0.0%      0.0%
 flops total                         1.454024E+06       0.0%    100.0%      0.0%
 flops max/rank                      1.454024E+06       0.0%    100.0%      0.0%
 matmuls inhomo. stacks                         0       0.0%      0.0%      0.0%
 matmuls total                               3444       0.0%    100.0%      0.0%
 number of processed stacks                  1476       0.0%    100.0%      0.0%
 average stack size                                     0.0       2.3       0.0
 marketing flops                     2.255000E+06
 -------------------------------------------------------------------------------
 # multiplications                            164
 max memory usage/rank             101.814272E+06
 # max total images/rank                        1
 # max 3D layers                                1
 # MPI messages exchanged                       0
 -------------------------------------------------------------------------------
 -                                                                             -
 -                      DBCSR MESSAGE PASSING PERFORMANCE                      -
 -                                                                             -
 -------------------------------------------------------------------------------
 ROUTINE             CALLS      AVE VOLUME [Bytes]
 MP_Bcast               10                     12.
 MP_Allreduce         1388                    219.
 MP_Alltoall          3216                   2511.
 MP_ISend              656                    120.
 MP_IRecv              656                    120.
 -------------------------------------------------------------------------------

 -------------------------------------------------------------------------------
 -                                                                             -
 -                                GRID STATISTICS                              -
 -                                                                             -
 -------------------------------------------------------------------------------
 LP    KERNEL             BACKEND                              COUNT     PERCENT
 -------------------------------------------------------------------------------

 MEMORY| Estimated peak process memory [MiB]                                  98

 -------------------------------------------------------------------------------
 -                                                                             -
 -                         MESSAGE PASSING PERFORMANCE                         -
 -                                                                             -
 -------------------------------------------------------------------------------

 ROUTINE             CALLS      AVE VOLUME [Bytes]
 MP_Group                1
 MP_Bcast              163                      4.
 MP_Allreduce         2460                     29.
 MP_Sync               165
 -------------------------------------------------------------------------------


 -------------------------------------------------------------------------------
 -                                                                             -
 -                           R E F E R E N C E S                               -
 -                                                                             -
 -------------------------------------------------------------------------------
 
 CP2K version 8.2, the CP2K developers group (2021).
 CP2K is freely available from https://www.cp2k.org/ .

 Kuehne,Thomas D.; Iannuzzi,Marcella; Del Ben,Mauro;
 Rybkin,Vladimir V.; Seewald,Patrick; Stein,Frederick; Laino,Teodoro;
 Khaliullin,Rustam Z.; Schuett,Ole; Schiffmann,Florian; Golze,Dorothea;
 Wilhelm,Jan; Chulkov,Sergey; Bani-Hashemian,Mohammad Hossein;
 Weber,Valery; Borstnik,Urban; Taillefumier,Mathieu;
 Jakobovits,Alice Shoshana; Lazzaro,Alfio; Pabst,Hans; Mueller,Tiziano;
 Schade,Robert; Guidon,Manuel; Andermatt,Samuel; Holmberg,Nico;
 Schenter,Gregory K.; Hehn,Anna; Bussy,Augustin; Belleflamme,Fabian;
 Tabacchi,Gloria; Gloess,Andreas; Lass,Michael; Bethune,Iain;
 Mundy,Christopher J.; Plessl,Christian; Watkins,Matt;
 VandeVondele,Joost; Krack,Matthias; Hutter,Juerg. 
 The Journal of Chemical Physics, 152 (19), (2020). 
 CP2K: An electronic structure and molecular dynamics software package -
 Quickstep: Efficient and accurate electronic structure calculations.
 https://doi.org/10.1063/5.0007045

 Schuett, Ole; Messmer, Peter; Hutter, Juerg; VandeVondele, Joost. 
 Electronic Structure Calculations on Graphics Processing Units, John
 Wiley & Sons, Ltd, 173-190 (2016). 
 GPU-Accelerated Sparse Matrix-Matrix Multiplication for
 Linear Scaling Density Functional Theory.
 https://doi.org/10.1002/9781118670712.ch8

 Heinecke, A; Henry, G; Hutchinson, M; Pabst, H. 
 Proceedings of Intl. Supercomputing Conference, 981-991 (2016). 
 LIBXSMM: Accelerating Small Matrix Multiplications
 by Runtime Code Generation.
 https://doi.org/10.1109/SC.2016.83

 Borstnik, U; VandeVondele, J; Weber, V; Hutter, J. 
 PARALLEL COMPUTING, 40 (5-6), 47-58 (2014). 
 Sparse matrix multiplication: The distributed block-compressed sparse
 row library.
 https://doi.org/10.1016/j.parco.2014.03.012

 Hutter, J; Iannuzzi, M; Schiffmann, F; VandeVondele, J. 
 WIREs Comput Mol Sci., 4 (1), 15-25 (2014). 
 CP2K: atomistic simulations of condensed matter systems.
 https://doi.org/10.1002/wcms.1159

 Stewart, JJP. 
 JOURNAL OF MOLECULAR MODELING, 13 (12), 1173-1213 (2007). 
 Optimization of parameters for semiempirical methods V: Modification of
 NDDO approximations and application to 70 elements.
 https://doi.org/10.1007/s00894-007-0233-4

 Kuhne, TD; Krack, M; Mohamed, FR; Parrinello, M. 
 PHYSICAL REVIEW LETTERS, 98 (6), 066401 (2007). 
 Efficient and accurate Car-Parrinello-like approach to
 Born-Oppenheimer molecular dynamics.
 https://doi.org/10.1103/PhysRevLett.98.066401

 Frigo, M; Johnson, SG. 
 PROCEEDINGS OF THE IEEE, 93 (2), 216-231 (2005). 
 The design and implementation of FFTW3.
 https://doi.org/10.1109/JPROC.2004.840301

 Kolafa, J. 
 JOURNAL OF COMPUTATIONAL CHEMISTRY, 25 (3), 335-342 (2004). 
 Time-reversible always stable predictor-corrector method for molecular dynamics of polarizable molecules.
 https://doi.org/10.1002/jcc.10385


 -------------------------------------------------------------------------------
 -                                                                             -
 -                                T I M I N G                                  -
 -                                                                             -
 -------------------------------------------------------------------------------
 SUBROUTINE                       CALLS  ASD         SELF TIME        TOTAL TIME
                                MAXIMUM       AVERAGE  MAXIMUM  AVERAGE  MAXIMUM
 CP2K                                 1  1.0    0.005    0.005    0.769    0.769
 cp_geo_opt                           1  2.0    0.000    0.000    0.758    0.758
 geoopt_bfgs                          1  3.0    0.003    0.003    0.758    0.758
 cp_eval_at                          20  4.0    0.003    0.003    0.523    0.523
 qs_forces                           19  5.0    0.001    0.001    0.499    0.499
 qs_energies                         20  6.0    0.001    0.001    0.454    0.454
 scf_env_do_scf                      20  7.0    0.001    0.001    0.392    0.392
 scf_env_do_scf_inner_loop          145  8.0    0.005    0.005    0.391    0.391
 qs_scf_new_mos                     145  9.0    0.001    0.001    0.163    0.163
 write_mo_set_to_restart            145  9.0    0.142    0.142    0.145    0.145
 write_restart                       19  4.0    0.141    0.141    0.143    0.143
 rebuild_ks_matrix                  164  9.6    0.000    0.000    0.101    0.101
 build_se_fock_matrix               164 10.6    0.002    0.002    0.101    0.101
 calculate_dm_sparse                164 10.0    0.000    0.000    0.098    0.098
 cp_dbcsr_plus_fm_fm_t_native       164 11.0    0.001    0.001    0.098    0.098
 dbcsr_multiply_generic             164 12.0    0.006    0.006    0.078    0.078
 qs_ks_update_qs_env                145  9.0    0.001    0.001    0.073    0.073
 build_fock_matrix_coulomb          164 11.6    0.027    0.027    0.067    0.067
 write_bfgs_hessian                  18  4.0    0.026    0.026    0.061    0.061
 build_se_core_matrix                39  7.0    0.002    0.002    0.061    0.061
 build_overlap_matrix_low            39  8.0    0.045    0.045    0.048    0.048
 cp_fm_write_unformatted             38  8.1    0.038    0.038    0.038    0.038
 make_m2s                           328 13.0    0.003    0.003    0.037    0.037
 cp_fm_syevd                        164 10.2    0.001    0.001    0.033    0.033
 qs_energies_init_hamiltonians       20  7.0    0.000    0.000    0.033    0.033
 eigensolver_simple                 145 10.0    0.003    0.003    0.033    0.033
 copy_dbcsr_to_fm                   145 10.0    0.001    0.001    0.032    0.032
 cp_fm_syevd_base                   164 11.2    0.032    0.032    0.032    0.032
 build_fock_matrix_exchange         164 11.6    0.031    0.031    0.031    0.031
 qs_ks_update_qs_env_forces          19  6.0    0.000    0.000    0.030    0.030
 dbcsr_complete_redistribute        309 12.0    0.012    0.012    0.030    0.030
 dbcsr_finalize                    2204 12.2    0.005    0.005    0.025    0.025
 init_scf_run                        20  7.0    0.001    0.001    0.025    0.025
 scf_env_initial_rho_setup           20  8.0    0.000    0.000    0.024    0.024
 wfi_extrapolate                     20  8.9    0.001    0.001    0.024    0.024
 write_trajectory                    38  4.0    0.021    0.021    0.022    0.022
 make_images                        328 14.0    0.005    0.005    0.022    0.022
 dbcsr_replicate                    386 11.9    0.006    0.006    0.020    0.020
 dbcsr_create_new                  4047 13.1    0.014    0.014    0.020    0.020
 multiply_cannon                    164 13.0    0.008    0.008    0.018    0.018
 copy_fm_to_dbcsr                   164 12.0    0.000    0.000    0.016    0.016
 qs_diis_b_step                     125 10.0    0.002    0.002    0.015    0.015
 -------------------------------------------------------------------------------

 The number of warnings for this run is : 0
 
 -------------------------------------------------------------------------------
  **** **** ******  **  PROGRAM ENDED AT                 2023-05-24 09:38:18.053
 ***** ** ***  *** **   PROGRAM RAN ON                               eu-g5-002-1
 **    ****   ******    PROGRAM RAN BY                                 jbachmann
 ***** **    ** ** **   PROGRAM PROCESS ID                                 22811
  **** **  *******  **  PROGRAM STOPPED IN /cluster/home/jbachmann/Molecular-and
                                           -Materials-Modelling-FS2023/exercise1
                                           3
