 DBCSR| CPU Multiplication driver                                           XSMM
 DBCSR| Multrec recursion limit                                              512
 DBCSR| Multiplication stack size                                           1000
 DBCSR| Maximum elements for images                                    UNLIMITED
 DBCSR| Multiplicative factor virtual images                                   1
 DBCSR| Use multiplication densification                                       T
 DBCSR| Multiplication size stacks                                             3
 DBCSR| Use memory pool for CPU allocation                                     F
 DBCSR| Number of 3D layers                                               SINGLE
 DBCSR| Use MPI memory allocation                                              F
 DBCSR| Use RMA algorithm                                                      F
 DBCSR| Use Communication thread                                               T
 DBCSR| Communication thread load                                             87
 DBCSR| MPI: My node id                                                        0
 DBCSR| MPI: Number of nodes                                                 256
 DBCSR| OMP: Current number of threads                                         1
 DBCSR| OMP: Max number of threads                                             1
 DBCSR| Split modifier for TAS multiplication algorithm                  1.0E+00


  **** **** ******  **  PROGRAM STARTED AT               2023-04-19 15:49:38.016
 ***** ** ***  *** **   PROGRAM STARTED ON                             nid001103
 **    ****   ******    PROGRAM STARTED BY                              dpassero
 ***** **    ** ** **   PROGRAM PROCESS ID                                 37687
  **** **  *******  **  PROGRAM STARTED IN /scratch/e1000/dpassero/MMM_2023/jbac
                                           hmann/grimme_d3/pt_slab/slab

 CP2K| version string:                 CP2K version 2022.1 (Development Version)
 CP2K| source code revision number:                                  git:4ddb46c
 CP2K| cp2kflags: omp libint fftw3 libxc elpa parallel mpi3 scalapack xsmm max_c
 CP2K|            ontr=4 plumed2 spglib
 CP2K| is freely available from                            https://www.cp2k.org/
 CP2K| Program compiled at                      Wed 14 Sep 2022 12:18:41 PM CEST
 CP2K| Program compiled on                                             nid001080
 CP2K| Program compiled for                                 Eiger-gfortran_May22
 CP2K| Data directory path         /users/mmi/DEV/CP2K/trunk_new/eiger/cp2k/data
 CP2K| Input file name        /scratch/e1000/dpassero/MMM_2023/jbachmann/grimme_

 GLOBAL| Force Environment number                                              1
 GLOBAL| Basis set file name                                        BASIS_MOLOPT
 GLOBAL| Potential file name                                           POTENTIAL
 GLOBAL| MM Potential file name                                     MM_POTENTIAL
 GLOBAL| Coordinate file name                                        pt_slab.xyz
 GLOBAL| Method name                                                        CP2K
 GLOBAL| Project name                                                    pt_slab
 GLOBAL| Run type                                                        GEO_OPT
 GLOBAL| FFT library                                                       FFTW3
 GLOBAL| Diagonalization library                                            ELPA
 GLOBAL| DGEMM library                                                      BLAS
 GLOBAL| Minimum number of eigenvectors for ELPA usage                        16
 GLOBAL| Orthonormality check for eigenvectors                          DISABLED
 GLOBAL| Matrix multiplication library                                 ScaLAPACK
 GLOBAL| All-to-all communication in single precision                          F
 GLOBAL| FFTs using library dependent lengths                                  T
 GLOBAL| Grid backend                                                       AUTO
 GLOBAL| Global print level                                                  LOW
 GLOBAL| MPI I/O enabled                                                       T
 GLOBAL| Total number of message passing processes                           256
 GLOBAL| Number of threads for this process                                    1
 GLOBAL| This output is from process                                           0
 GLOBAL| Stack size for threads created by OpenMP (OMP_STACKSIZE)           100M
 GLOBAL| CPU model name                          AMD EPYC 7742 64-Core Processor
 GLOBAL| CPUID                                                              1002

 MEMORY| system memory details [Kb]
 MEMORY|                        rank 0           min           max       average
 MEMORY| MemTotal            263506204     263506204     263506204     263506204
 MEMORY| MemFree             228968180     225966564     228968180     227467372
 MEMORY| Buffers                321180        321180        592528        456854
 MEMORY| Cached                6771844       6771844       8964132       7867988
 MEMORY| Slab                  7994088       7994088       8163964       8079026
 MEMORY| SReclaimable           703288        703288        863996        783642
 MEMORY| MemLikelyFree       236764492     236387220     236764492     236575856


 GENERATE|  Preliminary Number of Bonds generated:                             0
 GENERATE|  Achieved consistency in connectivity generation.

 *******************************************************************************
 *******************************************************************************
 **                                                                           **
 **     #####                         ##              ##                      **
 **    ##   ##            ##          ##              ##                      **
 **   ##     ##                       ##            ######                    **
 **   ##     ##  ##   ##  ##   #####  ##  ##   ####   ##    #####    #####    **
 **   ##     ##  ##   ##  ##  ##      ## ##   ##      ##   ##   ##  ##   ##   **
 **   ##  ## ##  ##   ##  ##  ##      ####     ###    ##   ######   ######    **
 **    ##  ###   ##   ##  ##  ##      ## ##      ##   ##   ##       ##        **
 **     #######   #####   ##   #####  ##  ##  ####    ##    #####   ##        **
 **           ##                                                    ##        **
 **                                                                           **
 **                                                ... make the atoms dance   **
 **                                                                           **
 **            Copyright (C) by CP2K developers group (2000-2022)             **
 **                      J. Chem. Phys. 152, 194103 (2020)                    **
 **                                                                           **
 *******************************************************************************


 TOTAL NUMBERS AND MAXIMUM NUMBERS

  Total number of            - Atomic kinds:                                   1
                             - Atoms:                                        180
                             - Shell sets:                                   180
                             - Shells:                                      1440
                             - Primitive Cartesian functions:               1080
                             - Cartesian basis functions:                   5580
                             - Spherical basis functions:                   4680

  Maximum angular momentum of- Orbital basis functions:                        3
                             - Local part of the GTH pseudopotential:          2
                             - Non-local part of the GTH pseudopotential:      5


 SCF PARAMETERS         Density guess:                                   RESTART
                        --------------------------------------------------------
                        max_scf:                                              30
                        max_scf_history:                                       0
                        max_diis:                                              4
                        --------------------------------------------------------
                        eps_scf:                                        1.00E-06
                        eps_scf_history:                                0.00E+00
                        eps_diis:                                       1.00E-01
                        eps_eigval:                                     1.00E-05
                        --------------------------------------------------------
                        level_shift [a.u.]:                             0.000000
                        --------------------------------------------------------
                        Outer loop SCF in use 
                        No variables optimised in outer loop
                        eps_scf                                         1.00E-06
                        max_scf                                               20
                        No outer loop optimization
                        step_size                                       5.00E-01

 BFGS| Use rational function optimization for step estimation:                NO
 BFGS| Use model Hessian for initial guess:                                  YES
 BFGS| Restart Hessian:                                                       NO
 BFGS| Trust radius:                                                       0.100

 *******************************************************************************
 ***                     STARTING GEOMETRY OPTIMIZATION                      ***
 ***                                   BFGS                                  ***
 *******************************************************************************

 Number of electrons:                                                       3240
 Number of occupied orbitals:                                               1620
 Number of molecular orbitals:                                              1620

 Number of orbital functions:                                               4680
 Number of independent orbital functions:                                   4680

 Extrapolation method: initial_guess


 SCF WAVEFUNCTION OPTIMIZATION

  ----------------------------------- OT ---------------------------------------
  Minimizer      : DIIS                : direct inversion
                                         in the iterative subspace
                                         using   7 DIIS vectors
                                         safer DIIS on
  Preconditioner : FULL_KINETIC        : inversion of T + eS
  Precond_solver : DEFAULT
  stepsize       :    0.15000000                  energy_gap     :    0.20000000
  eps_taylor     :   0.10000E-15                  max_taylor     :             4
  ----------------------------------- OT ---------------------------------------

  Step     Update method      Time    Convergence         Total energy    Change
  ------------------------------------------------------------------------------
     1 OT DIIS     0.15E+00    1.1     0.00045443    -21636.3829636537 -2.16E+04
     2 OT DIIS     0.15E+00    1.1     0.00023336    -21636.5457822775 -1.63E-01
     3 OT DIIS     0.15E+00    1.1     0.00015833    -21636.6008230686 -5.50E-02
     4 OT DIIS     0.15E+00    1.1     0.00012377    -21636.6228699093 -2.20E-02
     5 OT DIIS     0.15E+00    1.1     0.00010213    -21636.6333455486 -1.05E-02
     6 OT DIIS     0.15E+00    1.1     0.00005899    -21636.6413336730 -7.99E-03
     7 OT DIIS     0.15E+00    1.1     0.00004769    -21636.6448150877 -3.48E-03
     8 OT DIIS     0.15E+00    1.2     0.00003966    -21636.6484532905 -3.64E-03
     9 OT DIIS     0.15E+00    1.1     0.00003462    -21636.6510872945 -2.63E-03
    10 OT DIIS     0.15E+00    1.1     0.00002629    -21636.6539448049 -2.86E-03
    11 OT DIIS     0.15E+00    1.1     0.00002219    -21636.6554432956 -1.50E-03
    12 OT DIIS     0.15E+00    1.1     0.00001950    -21636.6566471474 -1.20E-03
    13 OT DIIS     0.15E+00    1.1     0.00001779    -21636.6576569991 -1.01E-03
    14 OT DIIS     0.15E+00    1.1     0.00001601    -21636.6584950681 -8.38E-04
    15 OT DIIS     0.15E+00    1.1     0.00001439    -21636.6591006972 -6.06E-04
    16 OT DIIS     0.15E+00    1.1     0.00001262    -21636.6595930083 -4.92E-04
    17 OT DIIS     0.15E+00    1.1     0.00001146    -21636.6600453940 -4.52E-04
    18 OT DIIS     0.15E+00    1.1     0.00001066    -21636.6603709354 -3.26E-04
    19 OT DIIS     0.15E+00    1.1     0.00000979    -21636.6606793222 -3.08E-04
    20 OT DIIS     0.15E+00    1.1     0.00000913    -21636.6609465630 -2.67E-04
    21 OT DIIS     0.15E+00    1.1     0.00000863    -21636.6612455272 -2.99E-04
    22 OT DIIS     0.15E+00    1.1     0.00000829    -21636.6614816261 -2.36E-04
    23 OT DIIS     0.15E+00    1.1     0.00000793    -21636.6616951025 -2.13E-04
    24 OT DIIS     0.15E+00    1.1     0.00000761    -21636.6618691175 -1.74E-04
    25 OT DIIS     0.15E+00    1.1     0.00000717    -21636.6620510841 -1.82E-04
    26 OT DIIS     0.15E+00    1.1     0.00000695    -21636.6622742768 -2.23E-04
    27 OT DIIS     0.15E+00    1.1     0.00000663    -21636.6624553119 -1.81E-04
    28 OT DIIS     0.15E+00    1.1     0.00000630    -21636.6626650248 -2.10E-04
    29 OT DIIS     0.15E+00    1.1     0.00000610    -21636.6628598700 -1.95E-04
    30 OT DIIS     0.15E+00    1.1     0.00000594    -21636.6630368393 -1.77E-04

  Leaving inner SCF loop after reaching    30 steps.


  Electronic density on regular grids:      -3240.0000000000        0.0000000000
  Core density on regular grids:             3240.0000000000       -0.0000000000
  Total charge density on r-space grids:       -0.0000000000
  Total charge density g-space grids:          -0.0000000000

  Overlap energy of the core charge distribution:               0.00000000772479
  Self energy of the core charge distribution:             -32903.53651250514667
  Core Hamiltonian energy:                                   7312.84242995681052
  Hartree energy:                                            6066.27976097037026
  Exchange-correlation energy:                              -2108.27868754664905
  Dispersion energy:                                           -3.97002772245564

  Total energy:                                            -21636.66303683934166

  outer SCF iter =    1 RMS gradient =   0.59E-05 energy =     -21636.6630368393

  ----------------------------------- OT ---------------------------------------
  Minimizer      : DIIS                : direct inversion
                                         in the iterative subspace
                                         using   7 DIIS vectors
                                         safer DIIS on
  Preconditioner : FULL_KINETIC        : inversion of T + eS
  Precond_solver : DEFAULT
  stepsize       :    0.15000000                  energy_gap     :    0.20000000
  eps_taylor     :   0.10000E-15                  max_taylor     :             4
  ----------------------------------- OT ---------------------------------------

  Step     Update method      Time    Convergence         Total energy    Change
  ------------------------------------------------------------------------------
     1 OT DIIS     0.15E+00    2.5     0.00000574    -21636.6632198895 -1.83E-04
     2 OT DIIS     0.15E+00    1.1     0.00000664    -21636.6632512368 -3.13E-05
     3 OT DIIS     0.15E+00    1.1     0.00000535    -21636.6632645478 -1.33E-05
     4 OT DIIS     0.15E+00    1.1     0.00000529    -21636.6633143850 -4.98E-05
     5 OT DIIS     0.15E+00    1.1     0.00000497    -21636.6635298827 -2.15E-04
     6 OT DIIS     0.15E+00    1.1     0.00000488    -21636.6635921477 -6.23E-05
     7 OT DIIS     0.15E+00    1.1     0.00000483    -21636.6637962150 -2.04E-04
     8 OT DIIS     0.15E+00    1.1     0.00000440    -21636.6641487310 -3.53E-04
     9 OT DIIS     0.15E+00    1.1     0.00000439    -21636.6642742681 -1.26E-04
    10 OT DIIS     0.15E+00    1.1     0.00000420    -21636.6643976001 -1.23E-04
    11 OT DIIS     0.15E+00    1.1     0.00000406    -21636.6646253740 -2.28E-04
    12 OT DIIS     0.15E+00    1.1     0.00000363    -21636.6649919361 -3.67E-04
    13 OT DIIS     0.15E+00    1.1     0.00000355    -21636.6651044109 -1.12E-04
    14 OT DIIS     0.15E+00    1.1     0.00000350    -21636.6651721065 -6.77E-05
    15 OT DIIS     0.15E+00    1.1     0.00000333    -21636.6653052430 -1.33E-04
    16 OT DIIS     0.15E+00    1.1     0.00000308    -21636.6654641196 -1.59E-04
    17 OT DIIS     0.15E+00    1.1     0.00000304    -21636.6655167411 -5.26E-05
    18 OT DIIS     0.15E+00    1.1     0.00000296    -21636.6655555480 -3.88E-05
    19 OT DIIS     0.15E+00    1.1     0.00000289    -21636.6655785019 -2.30E-05
    20 OT DIIS     0.15E+00    1.1     0.00000281    -21636.6656169254 -3.84E-05
    21 OT DIIS     0.15E+00    1.1     0.00000279    -21636.6656422320 -2.53E-05
    22 OT DIIS     0.15E+00    1.1     0.00000274    -21636.6656676384 -2.54E-05
    23 OT DIIS     0.15E+00    1.1     0.00000266    -21636.6657050478 -3.74E-05
    24 OT DIIS     0.15E+00    1.1     0.00000263    -21636.6657344226 -2.94E-05
    25 OT DIIS     0.15E+00    1.1     0.00000263    -21636.6657513522 -1.69E-05
    26 OT DIIS     0.15E+00    1.1     0.00000262    -21636.6657807518 -2.94E-05
    27 OT DIIS     0.15E+00    1.1     0.00000256    -21636.6658448210 -6.41E-05
    28 OT DIIS     0.15E+00    1.1     0.00000249    -21636.6659421634 -9.73E-05
    29 OT DIIS     0.15E+00    1.1     0.00000249    -21636.6659886413 -4.65E-05
    30 OT DIIS     0.15E+00    1.1     0.00000242    -21636.6660457251 -5.71E-05

  Leaving inner SCF loop after reaching    30 steps.


  Electronic density on regular grids:      -3240.0000000007       -0.0000000007
  Core density on regular grids:             3240.0000000000       -0.0000000000
  Total charge density on r-space grids:       -0.0000000007
  Total charge density g-space grids:          -0.0000000007

  Overlap energy of the core charge distribution:               0.00000000772479
  Self energy of the core charge distribution:             -32903.53651250514667
  Core Hamiltonian energy:                                   7312.73741012212759
  Hartree energy:                                            6066.35384434123989
  Exchange-correlation energy:                              -2108.25075996856276
  Dispersion energy:                                           -3.97002772245564

  Total energy:                                            -21636.66604572506913

  outer SCF iter =    2 RMS gradient =   0.24E-05 energy =     -21636.6660457251

  ----------------------------------- OT ---------------------------------------
  Minimizer      : DIIS                : direct inversion
                                         in the iterative subspace
                                         using   7 DIIS vectors
                                         safer DIIS on
  Preconditioner : FULL_KINETIC        : inversion of T + eS
  Precond_solver : DEFAULT
  stepsize       :    0.15000000                  energy_gap     :    0.20000000
  eps_taylor     :   0.10000E-15                  max_taylor     :             4
  ----------------------------------- OT ---------------------------------------

  Step     Update method      Time    Convergence         Total energy    Change
  ------------------------------------------------------------------------------
     1 OT DIIS     0.15E+00    2.5     0.00000234    -21636.6661430244 -9.73E-05
     2 OT DIIS     0.15E+00    1.1     0.00000241    -21636.6661488722 -5.85E-06
     3 OT DIIS     0.15E+00    1.1     0.00000227    -21636.6661513567 -2.48E-06
     4 OT DIIS     0.15E+00    1.1     0.00000226    -21636.6661574207 -6.06E-06
     5 OT DIIS     0.15E+00    1.1     0.00000221    -21636.6661855552 -2.81E-05
     6 OT DIIS     0.15E+00    1.1     0.00000219    -21636.6661948333 -9.28E-06
     7 OT DIIS     0.15E+00    1.1     0.00000218    -21636.6662152980 -2.05E-05
     8 OT DIIS     0.15E+00    1.1     0.00000214    -21636.6662895807 -7.43E-05
     9 OT DIIS     0.15E+00    1.1     0.00000213    -21636.6663178268 -2.82E-05
    10 OT DIIS     0.15E+00    1.1     0.00000208    -21636.6663812157 -6.34E-05
    11 OT DIIS     0.15E+00    1.1     0.00000208    -21636.6664607921 -7.96E-05
    12 OT DIIS     0.15E+00    1.1     0.00000195    -21636.6666715079 -2.11E-04
    13 OT DIIS     0.15E+00    1.1     0.00000187    -21636.6667755179 -1.04E-04
    14 OT DIIS     0.15E+00    1.1     0.00000184    -21636.6668422554 -6.67E-05
    15 OT DIIS     0.15E+00    1.1     0.00000179    -21636.6668994368 -5.72E-05
    16 OT DIIS     0.15E+00    1.1     0.00000172    -21636.6670089155 -1.09E-04
    17 OT DIIS     0.15E+00    1.1     0.00000159    -21636.6671314471 -1.23E-04
    18 OT DIIS     0.15E+00    1.1     0.00000156    -21636.6671850523 -5.36E-05
    19 OT DIIS     0.15E+00    1.1     0.00000152    -21636.6672133740 -2.83E-05
    20 OT DIIS     0.15E+00    1.1     0.00000150    -21636.6672478658 -3.45E-05
    21 OT DIIS     0.15E+00    1.1     0.00000146    -21636.6672697806 -2.19E-05
    22 OT DIIS     0.15E+00    1.1     0.00000144    -21636.6672790720 -9.29E-06
    23 OT DIIS     0.15E+00    1.1     0.00000143    -21636.6672814968 -2.42E-06
    24 OT DIIS     0.15E+00    1.1     0.00000142    -21636.6672834368 -1.94E-06
    25 OT DIIS     0.15E+00    1.1     0.00000141    -21636.6672848754 -1.44E-06
    26 OT SD       0.15E+00    1.1     0.00000141    -21636.6672886631 -3.79E-06
    27 OT DIIS     0.15E+00    1.1     0.00000142    -21636.6672908984 -2.24E-06
    28 OT DIIS     0.15E+00    1.1     0.00000140    -21636.6672986527 -7.75E-06
    29 OT DIIS     0.15E+00    1.1     0.00000139    -21636.6673114823 -1.28E-05
    30 OT DIIS     0.15E+00    1.1     0.00000138    -21636.6673191434 -7.66E-06

  Leaving inner SCF loop after reaching    30 steps.


  Electronic density on regular grids:      -3240.0000000027       -0.0000000027
  Core density on regular grids:             3240.0000000000       -0.0000000000
  Total charge density on r-space grids:       -0.0000000027
  Total charge density g-space grids:          -0.0000000027

  Overlap energy of the core charge distribution:               0.00000000772479
  Self energy of the core charge distribution:             -32903.53651250514667
  Core Hamiltonian energy:                                   7312.71729259258791
  Hartree energy:                                            6066.36616445587606
  Exchange-correlation energy:                              -2108.24423597202167
  Dispersion energy:                                           -3.97002772245564

  Total energy:                                            -21636.66731914343109

  outer SCF iter =    3 RMS gradient =   0.14E-05 energy =     -21636.6673191434

  ----------------------------------- OT ---------------------------------------
  Minimizer      : DIIS                : direct inversion
                                         in the iterative subspace
                                         using   7 DIIS vectors
                                         safer DIIS on
  Preconditioner : FULL_KINETIC        : inversion of T + eS
  Precond_solver : DEFAULT
  stepsize       :    0.15000000                  energy_gap     :    0.20000000
  eps_taylor     :   0.10000E-15                  max_taylor     :             4
  ----------------------------------- OT ---------------------------------------

  Step     Update method      Time    Convergence         Total energy    Change
  ------------------------------------------------------------------------------
     1 OT DIIS     0.15E+00    2.5     0.00000137    -21636.6673286164 -9.47E-06
     2 OT DIIS     0.15E+00    1.1     0.00000139    -21636.6673307341 -2.12E-06
     3 OT DIIS     0.15E+00    1.1     0.00000137    -21636.6673314632 -7.29E-07
     4 OT DIIS     0.15E+00    1.1     0.00000136    -21636.6673360045 -4.54E-06
     5 OT DIIS     0.15E+00    1.1     0.00000136    -21636.6673495658 -1.36E-05
     6 OT DIIS     0.15E+00    1.1     0.00000135    -21636.6673567703 -7.20E-06
     7 OT DIIS     0.15E+00    1.1     0.00000134    -21636.6674157980 -5.90E-05
     8 OT DIIS     0.15E+00    1.1     0.00000129    -21636.6675134069 -9.76E-05
     9 OT DIIS     0.15E+00    1.1     0.00000128    -21636.6675582695 -4.49E-05
    10 OT DIIS     0.15E+00    1.1     0.00000125    -21636.6676118800 -5.36E-05
    11 OT DIIS     0.15E+00    1.1     0.00000121    -21636.6677938117 -1.82E-04
    12 OT DIIS     0.15E+00    1.1     0.00000114    -21636.6678890017 -9.52E-05
    13 OT DIIS     0.15E+00    1.1     0.00000110    -21636.6679498230 -6.08E-05
    14 OT DIIS     0.15E+00    1.1     0.00000107    -21636.6680006896 -5.09E-05
    15 OT DIIS     0.15E+00    1.1     0.00000102    -21636.6680692754 -6.86E-05
    16 OT DIIS     0.15E+00    1.1     0.00000100    -21636.6681098753 -4.06E-05
    17 OT DIIS     0.15E+00    1.1     0.00000098    -21636.6681270372 -1.72E-05

  *** SCF run converged in    17 steps ***


  Electronic density on regular grids:      -3240.0000000155       -0.0000000155
  Core density on regular grids:             3240.0000000000       -0.0000000000
  Total charge density on r-space grids:       -0.0000000156
  Total charge density g-space grids:          -0.0000000156

  Overlap energy of the core charge distribution:               0.00000000772479
  Self energy of the core charge distribution:             -32903.53651250514667
  Core Hamiltonian energy:                                   7312.69298541253647
  Hartree energy:                                            6066.38327482813838
  Exchange-correlation energy:                              -2108.23784705799426
  Dispersion energy:                                           -3.97002772245564

  Total energy:                                            -21636.66812703719188

  outer SCF iter =    4 RMS gradient =   0.98E-06 energy =     -21636.6681270372
  outer SCF loop converged in   4 iterations or  107 steps


 ENERGY| Total FORCE_EVAL ( QS ) energy [a.u.]:           -21636.668134521140018

 --------  Informations at step =     0 ------------
  Optimization Method        =                 BFGS
  Total Energy               =    -21636.6681345211
  Used time                  =              125.081
 ---------------------------------------------------

 --------------------------
 OPTIMIZATION STEP:      1
 --------------------------

 Number of electrons:                                                       3240
 Number of occupied orbitals:                                               1620
 Number of molecular orbitals:                                              1620

 Number of orbital functions:                                               4680
 Number of independent orbital functions:                                   4680

 Extrapolation method: ASPC


 SCF WAVEFUNCTION OPTIMIZATION

  ----------------------------------- OT ---------------------------------------
  Minimizer      : DIIS                : direct inversion
                                         in the iterative subspace
                                         using   7 DIIS vectors
                                         safer DIIS on
  Preconditioner : FULL_KINETIC        : inversion of T + eS
  Precond_solver : DEFAULT
  stepsize       :    0.15000000                  energy_gap     :    0.20000000
  eps_taylor     :   0.10000E-15                  max_taylor     :             4
  ----------------------------------- OT ---------------------------------------

  Step     Update method      Time    Convergence         Total energy    Change
  ------------------------------------------------------------------------------
     1 OT DIIS     0.15E+00    1.0     0.00004622    -21636.6722519884 -2.16E+04
     2 OT DIIS     0.15E+00    1.1     0.00002627    -21636.6734880663 -1.24E-03
     3 OT DIIS     0.15E+00    1.1     0.00001620    -21636.6738718661 -3.84E-04
     4 OT DIIS     0.15E+00    1.1     0.00001203    -21636.6741978762 -3.26E-04
     5 OT DIIS     0.15E+00    1.1     0.00001289    -21636.6743554036 -1.58E-04
     6 OT DIIS     0.15E+00    1.1     0.00000751    -21636.6744964953 -1.41E-04
     7 OT DIIS     0.15E+00    1.1     0.00000675    -21636.6745938893 -9.74E-05
     8 OT DIIS     0.15E+00    1.1     0.00000535    -21636.6746844241 -9.05E-05
     9 OT DIIS     0.15E+00    1.1     0.00000481    -21636.6747465932 -6.22E-05
    10 OT DIIS     0.15E+00    1.1     0.00000420    -21636.6747935810 -4.70E-05
    11 OT DIIS     0.15E+00    1.1     0.00000380    -21636.6748434671 -4.99E-05
    12 OT DIIS     0.15E+00    1.1     0.00000347    -21636.6748894414 -4.60E-05
    13 OT DIIS     0.15E+00    1.1     0.00000319    -21636.6749201061 -3.07E-05
    14 OT DIIS     0.15E+00    1.1     0.00000295    -21636.6749475346 -2.74E-05
    15 OT DIIS     0.15E+00    1.1     0.00000286    -21636.6749711492 -2.36E-05
    16 OT DIIS     0.15E+00    1.1     0.00000264    -21636.6749976641 -2.65E-05
    17 OT DIIS     0.15E+00    1.1     0.00000248    -21636.6750207668 -2.31E-05
    18 OT DIIS     0.15E+00    1.1     0.00000233    -21636.6750414099 -2.06E-05
    19 OT DIIS     0.15E+00    1.1     0.00000223    -21636.6750593142 -1.79E-05
    20 OT DIIS     0.15E+00    1.1     0.00000213    -21636.6750771986 -1.79E-05
    21 OT DIIS     0.15E+00    1.1     0.00000211    -21636.6750946052 -1.74E-05
    22 OT DIIS     0.15E+00    1.1     0.00000199    -21636.6751096680 -1.51E-05
    23 OT DIIS     0.15E+00    1.1     0.00000195    -21636.6751263326 -1.67E-05
    24 OT DIIS     0.15E+00    1.1     0.00000187    -21636.6751410469 -1.47E-05
    25 OT DIIS     0.15E+00    1.1     0.00000180    -21636.6751567603 -1.57E-05
    26 OT DIIS     0.15E+00    1.1     0.00000172    -21636.6751721323 -1.54E-05
    27 OT DIIS     0.15E+00    1.1     0.00000168    -21636.6751862946 -1.42E-05
    28 OT DIIS     0.15E+00    1.1     0.00000163    -21636.6751996290 -1.33E-05
    29 OT DIIS     0.15E+00    1.1     0.00000161    -21636.6752126792 -1.31E-05
    30 OT DIIS     0.15E+00    1.1     0.00000158    -21636.6752232336 -1.06E-05

  Leaving inner SCF loop after reaching    30 steps.


  Electronic density on regular grids:      -3240.0000000000       -0.0000000000
  Core density on regular grids:             3240.0000000000       -0.0000000000
  Total charge density on r-space grids:       -0.0000000000
  Total charge density g-space grids:          -0.0000000000

  Overlap energy of the core charge distribution:               0.00000000738988
  Self energy of the core charge distribution:             -32903.53651250514667
  Core Hamiltonian energy:                                   7311.94439881243397
  Hartree energy:                                            6066.85755692863040
  Exchange-correlation energy:                              -2107.97954017171514
  Dispersion energy:                                           -3.96112630523052

  Total energy:                                            -21636.67522323364028

  outer SCF iter =    1 RMS gradient =   0.16E-05 energy =     -21636.6752232336

  ----------------------------------- OT ---------------------------------------
  Minimizer      : DIIS                : direct inversion
                                         in the iterative subspace
                                         using   7 DIIS vectors
                                         safer DIIS on
  Preconditioner : FULL_KINETIC        : inversion of T + eS
  Precond_solver : DEFAULT
  stepsize       :    0.15000000                  energy_gap     :    0.20000000
  eps_taylor     :   0.10000E-15                  max_taylor     :             4
  ----------------------------------- OT ---------------------------------------

  Step     Update method      Time    Convergence         Total energy    Change
  ------------------------------------------------------------------------------
     1 OT DIIS     0.15E+00    2.5     0.00000155    -21636.6752356260 -1.24E-05
     2 OT DIIS     0.15E+00    1.1     0.00000171    -21636.6752380655 -2.44E-06
     3 OT DIIS     0.15E+00    1.1     0.00000148    -21636.6752390254 -9.60E-07
     4 OT DIIS     0.15E+00    1.1     0.00000148    -21636.6752430693 -4.04E-06
     5 OT DIIS     0.15E+00    1.1     0.00000140    -21636.6752675314 -2.45E-05
     6 OT DIIS     0.15E+00    1.1     0.00000134    -21636.6752751832 -7.65E-06
     7 OT DIIS     0.15E+00    1.1     0.00000134    -21636.6752899178 -1.47E-05
     8 OT DIIS     0.15E+00    1.1     0.00000126    -21636.6753138156 -2.39E-05
     9 OT DIIS     0.15E+00    1.1     0.00000125    -21636.6753211118 -7.30E-06
    10 OT DIIS     0.15E+00    1.1     0.00000123    -21636.6753291591 -8.05E-06
    11 OT DIIS     0.15E+00    1.1     0.00000124    -21636.6753412273 -1.21E-05
    12 OT DIIS     0.15E+00    1.1     0.00000117    -21636.6753660964 -2.49E-05
    13 OT DIIS     0.15E+00    1.1     0.00000115    -21636.6753779390 -1.18E-05
    14 OT DIIS     0.15E+00    1.1     0.00000113    -21636.6753891344 -1.12E-05
    15 OT DIIS     0.15E+00    1.1     0.00000112    -21636.6754034948 -1.44E-05
    16 OT DIIS     0.15E+00    1.1     0.00000107    -21636.6754218136 -1.83E-05
    17 OT DIIS     0.15E+00    1.1     0.00000106    -21636.6754297997 -7.99E-06
    18 OT DIIS     0.15E+00    1.1     0.00000104    -21636.6754374705 -7.67E-06
    19 OT DIIS     0.15E+00    1.1     0.00000103    -21636.6754427346 -5.26E-06
    20 OT DIIS     0.15E+00    1.1     0.00000101    -21636.6754491968 -6.46E-06
    21 OT DIIS     0.15E+00    1.1     0.00000100    -21636.6754535876 -4.39E-06

  *** SCF run converged in    21 steps ***


  Electronic density on regular grids:      -3240.0000000000       -0.0000000000
  Core density on regular grids:             3240.0000000000       -0.0000000000
  Total charge density on r-space grids:       -0.0000000000
  Total charge density g-space grids:          -0.0000000000

  Overlap energy of the core charge distribution:               0.00000000738988
  Self energy of the core charge distribution:             -32903.53651250514667
  Core Hamiltonian energy:                                   7311.94450016641531
  Hartree energy:                                            6066.85750788543555
  Exchange-correlation energy:                              -2107.97982283641886
  Dispersion energy:                                           -3.96112630523052

  Total energy:                                            -21636.67545358755888

  outer SCF iter =    2 RMS gradient =   0.10E-05 energy =     -21636.6754535876
  outer SCF loop converged in   2 iterations or   51 steps


 ENERGY| Total FORCE_EVAL ( QS ) energy [a.u.]:           -21636.675456476074032

 --------  Informations at step =     1 ------------
  Optimization Method        =                 BFGS
  Total Energy               =    -21636.6754564761
  Real energy change         =        -0.0073219549
  Predicted change in energy =        -0.0055517282
  Scaling factor             =         0.0000000000
  Step size                  =         0.0595329208
  Trust radius               =         0.1000000000
  Decrease in energy         =                  YES
  Used time                  =               60.763

  Convergence check :
  Max. step size             =         0.0595329208
  Conv. limit for step size  =         0.0200000000
  Convergence in step size   =                   NO
  RMS step size              =         0.0143392551
  Conv. limit for RMS step   =         0.0200000000
  Convergence in RMS step    =                  YES
  Max. gradient              =         0.0015649602
  Conv. limit for gradients  =         0.0030000000
  Conv. in gradients         =                  YES
  RMS gradient               =         0.0003777590
  Conv. limit for RMS grad.  =         0.0010000000
  Conv. in RMS gradients     =                  YES
 ---------------------------------------------------
 Estimated peak process memory after this step [MiB]                         331

 --------------------------
 OPTIMIZATION STEP:      2
 --------------------------

 Number of electrons:                                                       3240
 Number of occupied orbitals:                                               1620
 Number of molecular orbitals:                                              1620

 Number of orbital functions:                                               4680
 Number of independent orbital functions:                                   4680

 Extrapolation method: ASPC


 SCF WAVEFUNCTION OPTIMIZATION

  ----------------------------------- OT ---------------------------------------
  Minimizer      : DIIS                : direct inversion
                                         in the iterative subspace
                                         using   7 DIIS vectors
                                         safer DIIS on
  Preconditioner : FULL_KINETIC        : inversion of T + eS
  Precond_solver : DEFAULT
  stepsize       :    0.15000000                  energy_gap     :    0.20000000
  eps_taylor     :   0.10000E-15                  max_taylor     :             4
  ----------------------------------- OT ---------------------------------------

  Step     Update method      Time    Convergence         Total energy    Change
  ------------------------------------------------------------------------------
     1 OT DIIS     0.15E+00    1.0     0.00003097    -21636.6749879685 -2.16E+04
     2 OT DIIS     0.15E+00    1.1     0.00001778    -21636.6755211919 -5.33E-04
     3 OT DIIS     0.15E+00    1.1     0.00001062    -21636.6756891264 -1.68E-04
     4 OT DIIS     0.15E+00    1.1     0.00000850    -21636.6758251285 -1.36E-04
     5 OT DIIS     0.15E+00    1.1     0.00000825    -21636.6758858839 -6.08E-05
     6 OT DIIS     0.15E+00    1.1     0.00000502    -21636.6759557678 -6.99E-05
     7 OT DIIS     0.15E+00    1.1     0.00000453    -21636.6759934375 -3.77E-05
     8 OT DIIS     0.15E+00    1.1     0.00000356    -21636.6760355780 -4.21E-05
     9 OT DIIS     0.15E+00    1.1     0.00000316    -21636.6760616727 -2.61E-05
    10 OT DIIS     0.15E+00    1.1     0.00000267    -21636.6760832103 -2.15E-05
    11 OT DIIS     0.15E+00    1.1     0.00000242    -21636.6761037138 -2.05E-05
    12 OT DIIS     0.15E+00    1.1     0.00000222    -21636.6761217824 -1.81E-05
    13 OT DIIS     0.15E+00    1.1     0.00000196    -21636.6761338768 -1.21E-05
    14 OT DIIS     0.15E+00    1.1     0.00000180    -21636.6761443154 -1.04E-05
    15 OT DIIS     0.15E+00    1.1     0.00000171    -21636.6761524347 -8.12E-06
    16 OT DIIS     0.15E+00    1.1     0.00000158    -21636.6761615917 -9.16E-06
    17 OT DIIS     0.15E+00    1.1     0.00000145    -21636.6761691523 -7.56E-06
    18 OT DIIS     0.15E+00    1.1     0.00000135    -21636.6761758379 -6.69E-06
    19 OT DIIS     0.15E+00    1.1     0.00000127    -21636.6761812954 -5.46E-06
    20 OT DIIS     0.15E+00    1.1     0.00000121    -21636.6761867949 -5.50E-06
    21 OT DIIS     0.15E+00    1.1     0.00000120    -21636.6761914709 -4.68E-06
    22 OT DIIS     0.15E+00    1.1     0.00000111    -21636.6761961348 -4.66E-06
    23 OT DIIS     0.15E+00    1.1     0.00000109    -21636.6762004019 -4.27E-06
    24 OT DIIS     0.15E+00    1.1     0.00000104    -21636.6762046818 -4.28E-06
    25 OT DIIS     0.15E+00    1.1     0.00000099    -21636.6762087193 -4.04E-06

  *** SCF run converged in    25 steps ***


  Electronic density on regular grids:      -3240.0000000000        0.0000000000
  Core density on regular grids:             3240.0000000000       -0.0000000000
  Total charge density on r-space grids:       -0.0000000000
  Total charge density g-space grids:          -0.0000000000

  Overlap energy of the core charge distribution:               0.00000000730446
  Self energy of the core charge distribution:             -32903.53651250514667
  Core Hamiltonian energy:                                   7311.69553395946787
  Hartree energy:                                            6067.01536756975838
  Exchange-correlation energy:                              -2107.89261927505322
  Dispersion energy:                                           -3.95797847567420

  Total energy:                                            -21636.67620871934560

  outer SCF iter =    1 RMS gradient =   0.99E-06 energy =     -21636.6762087193
  outer SCF loop converged in   1 iterations or   25 steps


 ENERGY| Total FORCE_EVAL ( QS ) energy [a.u.]:           -21636.676212968301115

 --------  Informations at step =     2 ------------
  Optimization Method        =                 BFGS
  Total Energy               =    -21636.6762129683
  Real energy change         =        -0.0007564922
  Predicted change in energy =        -0.0005234156
  Scaling factor             =         0.0000000000
  Step size                  =         0.0212655290
  Trust radius               =         0.1000000000
  Decrease in energy         =                  YES
  Used time                  =               32.026

  Convergence check :
  Max. step size             =         0.0212655290
  Conv. limit for step size  =         0.0200000000
  Convergence in step size   =                   NO
  RMS step size              =         0.0051321498
  Conv. limit for RMS step   =         0.0200000000
  Convergence in RMS step    =                  YES
  Max. gradient              =         0.0002347404
  Conv. limit for gradients  =         0.0030000000
  Conv. in gradients         =                  YES
  RMS gradient               =         0.0000403348
  Conv. limit for RMS grad.  =         0.0010000000
  Conv. in RMS gradients     =                  YES
 ---------------------------------------------------
 Estimated peak process memory after this step [MiB]                         333

 --------------------------
 OPTIMIZATION STEP:      3
 --------------------------

 Number of electrons:                                                       3240
 Number of occupied orbitals:                                               1620
 Number of molecular orbitals:                                              1620

 Number of orbital functions:                                               4680
 Number of independent orbital functions:                                   4680

 Extrapolation method: ASPC


 SCF WAVEFUNCTION OPTIMIZATION

  ----------------------------------- OT ---------------------------------------
  Minimizer      : DIIS                : direct inversion
                                         in the iterative subspace
                                         using   7 DIIS vectors
                                         safer DIIS on
  Preconditioner : FULL_KINETIC        : inversion of T + eS
  Precond_solver : DEFAULT
  stepsize       :    0.15000000                  energy_gap     :    0.20000000
  eps_taylor     :   0.10000E-15                  max_taylor     :             4
  ----------------------------------- OT ---------------------------------------

  Step     Update method      Time    Convergence         Total energy    Change
  ------------------------------------------------------------------------------
     1 OT DIIS     0.15E+00    1.0     0.00000448    -21636.6761841112 -2.16E+04
     2 OT DIIS     0.15E+00    1.1     0.00000331    -21636.6761983166 -1.42E-05
     3 OT DIIS     0.15E+00    1.1     0.00000293    -21636.6762042754 -5.96E-06
     4 OT DIIS     0.15E+00    1.1     0.00000252    -21636.6762099534 -5.68E-06
     5 OT DIIS     0.15E+00    1.1     0.00000207    -21636.6762179614 -8.01E-06
     6 OT DIIS     0.15E+00    1.1     0.00000194    -21636.6762247711 -6.81E-06
     7 OT DIIS     0.15E+00    1.1     0.00000177    -21636.6762321997 -7.43E-06
     8 OT DIIS     0.15E+00    1.1     0.00000167    -21636.6762402490 -8.05E-06
     9 OT DIIS     0.15E+00    1.1     0.00000154    -21636.6762510024 -1.08E-05
    10 OT DIIS     0.15E+00    1.1     0.00000149    -21636.6762595932 -8.59E-06
    11 OT DIIS     0.15E+00    1.1     0.00000145    -21636.6762676689 -8.08E-06
    12 OT DIIS     0.15E+00    1.1     0.00000140    -21636.6762776416 -9.97E-06
    13 OT DIIS     0.15E+00    1.1     0.00000132    -21636.6762883494 -1.07E-05
    14 OT DIIS     0.15E+00    1.1     0.00000127    -21636.6762984743 -1.01E-05
    15 OT DIIS     0.15E+00    1.1     0.00000122    -21636.6763078441 -9.37E-06
    16 OT DIIS     0.15E+00    1.1     0.00000117    -21636.6763173351 -9.49E-06
    17 OT DIIS     0.15E+00    1.1     0.00000111    -21636.6763263210 -8.99E-06
    18 OT DIIS     0.15E+00    1.1     0.00000106    -21636.6763341742 -7.85E-06
    19 OT DIIS     0.15E+00    1.1     0.00000102    -21636.6763407557 -6.58E-06
    20 OT DIIS     0.15E+00    1.2     0.00000099    -21636.6763469111 -6.16E-06

  *** SCF run converged in    20 steps ***


  Electronic density on regular grids:      -3240.0000000000       -0.0000000000
  Core density on regular grids:             3240.0000000000       -0.0000000000
  Total charge density on r-space grids:       -0.0000000000
  Total charge density g-space grids:          -0.0000000000

  Overlap energy of the core charge distribution:               0.00000000731057
  Self energy of the core charge distribution:             -32903.53651250514667
  Core Hamiltonian energy:                                   7311.71685094516761
  Hartree energy:                                            6067.00192289324696
  Exchange-correlation energy:                              -2107.90038522196755
  Dispersion energy:                                           -3.95822302969938

  Total energy:                                            -21636.67634691108833

  outer SCF iter =    1 RMS gradient =   0.99E-06 energy =     -21636.6763469111
  outer SCF loop converged in   1 iterations or   20 steps


 ENERGY| Total FORCE_EVAL ( QS ) energy [a.u.]:           -21636.676352152378968

 --------  Informations at step =     3 ------------
  Optimization Method        =                 BFGS
  Total Energy               =    -21636.6763521524
  Real energy change         =        -0.0001391841
  Predicted change in energy =        -0.0000047945
  Scaling factor             =         0.0000000000
  Step size                  =         0.0025630245
  Trust radius               =         0.1000000000
  Decrease in energy         =                  YES
  Used time                  =               26.208

  Convergence check :
  Max. step size             =         0.0025630245
  Conv. limit for step size  =         0.0200000000
  Convergence in step size   =                  YES
  RMS step size              =         0.0004472980
  Conv. limit for RMS step   =         0.0200000000
  Convergence in RMS step    =                  YES
  Max. gradient              =         0.0002567280
  Conv. limit for gradients  =         0.0030000000
  Conv. in gradients         =                  YES
  RMS gradient               =         0.0000541636
  Conv. limit for RMS grad.  =         0.0010000000
  Conv. in RMS gradients     =                  YES
 ---------------------------------------------------
 Estimated peak process memory after this step [MiB]                         334

 *******************************************************************************
 ***                    GEOMETRY OPTIMIZATION COMPLETED                      ***
 *******************************************************************************

                    Reevaluating energy at the minimum

 Number of electrons:                                                       3240
 Number of occupied orbitals:                                               1620
 Number of molecular orbitals:                                              1620

 Number of orbital functions:                                               4680
 Number of independent orbital functions:                                   4680

 Extrapolation method: ASPC


 SCF WAVEFUNCTION OPTIMIZATION

  ----------------------------------- OT ---------------------------------------
  Minimizer      : DIIS                : direct inversion
                                         in the iterative subspace
                                         using   7 DIIS vectors
                                         safer DIIS on
  Preconditioner : FULL_KINETIC        : inversion of T + eS
  Precond_solver : DEFAULT
  stepsize       :    0.15000000                  energy_gap     :    0.20000000
  eps_taylor     :   0.10000E-15                  max_taylor     :             4
  ----------------------------------- OT ---------------------------------------

  Step     Update method      Time    Convergence         Total energy    Change
  ------------------------------------------------------------------------------
     1 OT DIIS     0.15E+00    1.0     0.00001001    -21636.6761898972 -2.16E+04
     2 OT DIIS     0.15E+00    1.1     0.00000629    -21636.6762460493 -5.62E-05
     3 OT DIIS     0.15E+00    1.1     0.00000466    -21636.6762642141 -1.82E-05
     4 OT DIIS     0.15E+00    1.1     0.00000441    -21636.6762751289 -1.09E-05
     5 OT DIIS     0.15E+00    1.1     0.00000261    -21636.6762890955 -1.40E-05
     6 OT DIIS     0.15E+00    1.1     0.00000245    -21636.6763003859 -1.13E-05
     7 OT DIIS     0.15E+00    1.1     0.00000203    -21636.6763075843 -7.20E-06
     8 OT DIIS     0.15E+00    1.1     0.00000189    -21636.6763175176 -9.93E-06
     9 OT DIIS     0.15E+00    1.1     0.00000168    -21636.6763264408 -8.92E-06
    10 OT DIIS     0.15E+00    1.1     0.00000160    -21636.6763355517 -9.11E-06
    11 OT DIIS     0.15E+00    1.1     0.00000157    -21636.6763412704 -5.72E-06
    12 OT DIIS     0.15E+00    1.1     0.00000145    -21636.6763509264 -9.66E-06
    13 OT DIIS     0.15E+00    1.1     0.00000137    -21636.6763601960 -9.27E-06
    14 OT DIIS     0.15E+00    1.1     0.00000131    -21636.6763688893 -8.69E-06
    15 OT DIIS     0.15E+00    1.1     0.00000127    -21636.6763769270 -8.04E-06
    16 OT DIIS     0.15E+00    1.1     0.00000121    -21636.6763863756 -9.45E-06
    17 OT DIIS     0.15E+00    1.1     0.00000114    -21636.6763949660 -8.59E-06
    18 OT DIIS     0.15E+00    1.1     0.00000111    -21636.6764019070 -6.94E-06
    19 OT DIIS     0.15E+00    1.1     0.00000107    -21636.6764074849 -5.58E-06
    20 OT DIIS     0.15E+00    1.1     0.00000103    -21636.6764134572 -5.97E-06
    21 OT DIIS     0.15E+00    1.1     0.00000099    -21636.6764187339 -5.28E-06

  *** SCF run converged in    21 steps ***


  Electronic density on regular grids:      -3240.0000000000        0.0000000000
  Core density on regular grids:             3240.0000000000       -0.0000000000
  Total charge density on r-space grids:       -0.0000000000
  Total charge density g-space grids:          -0.0000000000

  Overlap energy of the core charge distribution:               0.00000000731057
  Self energy of the core charge distribution:             -32903.53651250514667
  Core Hamiltonian energy:                                   7311.71472375102894
  Hartree energy:                                            6067.00340975396284
  Exchange-correlation energy:                              -2107.89981671136593
  Dispersion energy:                                           -3.95822302969938

  Total energy:                                            -21636.67641873391040

  outer SCF iter =    1 RMS gradient =   0.99E-06 energy =     -21636.6764187339
  outer SCF loop converged in   1 iterations or   21 steps


 ENERGY| Total FORCE_EVAL ( QS ) energy [a.u.]:           -21636.676418733910396

 -------------------------------------------------------------------------------
 -                                                                             -
 -                                DBCSR STATISTICS                             -
 -                                                                             -
 -------------------------------------------------------------------------------
 COUNTER                                    TOTAL       BLAS       SMM       ACC
 flops    26 x    20 x    20             33696000       0.0%    100.0%      0.0%
 flops   116 x   116 x   116           3836682368       0.0%    100.0%      0.0%
 flops    26 x    32 x    32           4313088000       0.0%    100.0%      0.0%
 flops   116 x   116 x   128           8467161088       0.0%    100.0%      0.0%
 flops   116 x   128 x   116           8467161088       0.0%    100.0%      0.0%
 flops   128 x   116 x   116           8467161088       0.0%    100.0%      0.0%
 flops   128 x   128 x   116          18686148608       0.0%    100.0%      0.0%
 flops   116 x   128 x   128          18686148608       0.0%    100.0%      0.0%
 flops   128 x   116 x   128          18686148608       0.0%    100.0%      0.0%
 flops   116 x   116 x   312          29790938112       0.0%    100.0%      0.0%
 flops   312 x   116 x   116          37011965952       0.0%    100.0%      0.0%
 flops   128 x   128 x   128          41238396928       0.0%    100.0%      0.0%
 flops    96 x   116 x   116          41277410304       0.0%    100.0%      0.0%
 flops   116 x    96 x   116          41277410304       0.0%    100.0%      0.0%
 flops   116 x   116 x    96          41277410304       0.0%    100.0%      0.0%
 flops   116 x   128 x   312          65745518592       0.0%    100.0%      0.0%
 flops   128 x   116 x   312          65745518592       0.0%    100.0%      0.0%
 flops   312 x   116 x   128          81681580032       0.0%    100.0%      0.0%
 flops   312 x   128 x   116          81681580032       0.0%    100.0%      0.0%
 flops   116 x   116 x   286          81925079808       0.0%    100.0%      0.0%
 flops   312 x   116 x   312          84192436224       0.0%    100.0%      0.0%
 flops    96 x   116 x   128          91094974464       0.0%    100.0%      0.0%
 flops    96 x   128 x   116          91094974464       0.0%    100.0%      0.0%
 flops   116 x    96 x   128          91094974464       0.0%    100.0%      0.0%
 flops   116 x   128 x    96          91094974464       0.0%    100.0%      0.0%
 flops   128 x    96 x   116          91094974464       0.0%    100.0%      0.0%
 flops   128 x   116 x    96          91094974464       0.0%    100.0%      0.0%
 flops   286 x   116 x   116         101782906368       0.0%    100.0%      0.0%
 flops   128 x   128 x   312         145093558272       0.0%    100.0%      0.0%
 flops   312 x   128 x   128         180262797312       0.0%    100.0%      0.0%
 flops   116 x   128 x   286         180800176128       0.0%    100.0%      0.0%
 flops   128 x   116 x   286         180800176128       0.0%    100.0%      0.0%
 flops   312 x   128 x   312         185803997184       0.0%    100.0%      0.0%
 flops   128 x   128 x    96         201037185024       0.0%    100.0%      0.0%
 flops    96 x   128 x   128         201037185024       0.0%    100.0%      0.0%
 flops   128 x    96 x   128         201037185024       0.0%    100.0%      0.0%
 flops   286 x   128 x   116         224624345088       0.0%    100.0%      0.0%
 flops   286 x   116 x   128         224624345088       0.0%    100.0%      0.0%
 flops   286 x   116 x   312         231529199616       0.0%    100.0%      0.0%
 flops   312 x   116 x   286         231529199616       0.0%    100.0%      0.0%
 flops    96 x   116 x   312         320509403136       0.0%    100.0%      0.0%
 flops   116 x    96 x   312         320509403136       0.0%    100.0%      0.0%
 flops   312 x    96 x   116         398197702656       0.0%    100.0%      0.0%
 flops   312 x   116 x    96         398197702656       0.0%    100.0%      0.0%
 flops   128 x   128 x   286         399007285248       0.0%    100.0%      0.0%
 flops    26 x    20 x    26         417021696000       0.0%    100.0%      0.0%
 flops    96 x    96 x   116         444088000512       0.0%    100.0%      0.0%
 flops    96 x   116 x    96         444088000512       0.0%    100.0%      0.0%
 flops   116 x    96 x    96         444088000512       0.0%    100.0%      0.0%
 flops   286 x   128 x   128         495722692608       0.0%    100.0%      0.0%
 flops   286 x   128 x   312         510960992256       0.0%    100.0%      0.0%
 flops   312 x   128 x   286         510960992256       0.0%    100.0%      0.0%
 flops    26 x    26 x   116         595266834240       0.0%    100.0%      0.0%
 flops   286 x   116 x   286         636705298944       0.0%    100.0%      0.0%
 flops    96 x   128 x   312         707331096576       0.0%    100.0%      0.0%
 flops   128 x    96 x   312         707331096576       0.0%    100.0%      0.0%
 flops   312 x    96 x   128         878781136896       0.0%    100.0%      0.0%
 flops   312 x   128 x    96         878781136896       0.0%    100.0%      0.0%
 flops    96 x   116 x   286         881400858624       0.0%    100.0%      0.0%
 flops   116 x    96 x   286         881400858624       0.0%    100.0%      0.0%
 flops   312 x    96 x   312         905794486272       0.0%    100.0%      0.0%
 flops    96 x    96 x   128         980056276992       0.0%    100.0%      0.0%
 flops    96 x   128 x    96         980056276992       0.0%    100.0%      0.0%
 flops   128 x    96 x    96         980056276992       0.0%    100.0%      0.0%
 flops   286 x    96 x   116        1095043682304       0.0%    100.0%      0.0%
 flops   286 x   116 x    96        1095043682304       0.0%    100.0%      0.0%
 flops    26 x    26 x   128        1313692323840       0.0%    100.0%      0.0%
 flops   286 x   128 x   286        1405142728704       0.0%    100.0%      0.0%
 flops    96 x   128 x   286        1945160515584       0.0%    100.0%      0.0%
 flops   128 x    96 x   286        1945160515584       0.0%    100.0%      0.0%
 flops   286 x   128 x    96        2416648126464       0.0%    100.0%      0.0%
 flops   286 x    96 x   128        2416648126464       0.0%    100.0%      0.0%
 flops   286 x    96 x   312        2490934837248       0.0%    100.0%      0.0%
 flops   312 x    96 x   286        2490934837248       0.0%    100.0%      0.0%
 flops    96 x    96 x   312        3448239095808       0.0%    100.0%      0.0%
 flops   312 x    96 x    96        4284058042368       0.0%    100.0%      0.0%
 flops    96 x    96 x    96        4777774350336       0.0%    100.0%      0.0%
 flops    26 x    26 x    96        6404250078720       0.0%    100.0%      0.0%
 flops   286 x    96 x   286        6850070802432       0.0%    100.0%      0.0%
 flops    96 x    96 x   286        9482657513472       0.0%    100.0%      0.0%
 flops   286 x    96 x    96       11781159616512       0.0%    100.0%      0.0%
 flops    26 x    32 x    26       33361735680000       0.0%    100.0%      0.0%
 flops inhomo. stacks                           0       0.0%      0.0%      0.0%
 flops total                       117.939689E+12       0.0%    100.0%      0.0%
 flops max/rank                    608.615846E+09       0.0%    100.0%      0.0%
 matmuls inhomo. stacks                         0       0.0%      0.0%      0.0%
 matmuls total                          861489436       0.0%    100.0%      0.0%
 number of processed stacks              17163664       0.0%    100.0%      0.0%
 average stack size                                     0.0      50.2       0.0
 marketing flops                   126.599932E+12
 -------------------------------------------------------------------------------
 # multiplications                           4178
 max memory usage/rank             351.555584E+06
 # max total images/rank                        1
 # max 3D layers                                1
 # MPI messages exchanged                32087040
 MPI messages size (bytes):
  total size                         6.676956E+12
  min size                           0.000000E+00
  max size                         778.752000E+03
  average size                     208.088875E+03
 MPI breakdown and total messages size (bytes):
             size <=      128              101520                        0
       128 < size <=     8192                   0                        0
      8192 < size <=    32768                2160                 55728000
     32768 < size <=   131072            13670400            1121143680000
    131072 < size <=  4194304            18312960            5557211712000
   4194304 < size <= 16777216                   0                        0
  16777216 < size                               0                        0
 -------------------------------------------------------------------------------
 -                                                                             -
 -                      DBCSR MESSAGE PASSING PERFORMANCE                      -
 -                                                                             -
 -------------------------------------------------------------------------------
 ROUTINE             CALLS      AVE VOLUME [Bytes]
 MP_Bcast               83                     12.
 MP_Allreduce        22843                      8.
 MP_Alltoall         12636                  87278.
 MP_ISend           267356                 109966.
 MP_IRecv           267356                 109096.
 -------------------------------------------------------------------------------

 -------------------------------------------------------------------------------
 -                                                                             -
 -                                DBM STATISTICS                               -
 -                                                                             -
 -------------------------------------------------------------------------------
    M  x    N  x    K                                          COUNT     PERCENT
 -------------------------------------------------------------------------------

 -------------------------------------------------------------------------------
 -                                                                             -
 -                                GRID STATISTICS                              -
 -                                                                             -
 -------------------------------------------------------------------------------
 LP    KERNEL             BACKEND                              COUNT     PERCENT
 6     collocate general  REF                               59686560      49.94%
 6     integrate general  REF                               58383360      48.85%
 7     integrate general  REF                                1042560       0.87%
 0     collocate general  REF                                 230400       0.19%
 1     integrate general  REF                                 184320       0.15%
 -------------------------------------------------------------------------------

 MEMORY| Estimated peak process memory [MiB]                                 336

 -------------------------------------------------------------------------------
 -                                                                             -
 -                         MESSAGE PASSING PERFORMANCE                         -
 -                                                                             -
 -------------------------------------------------------------------------------

 ROUTINE             CALLS      AVE VOLUME [Bytes]
 MP_Group                5
 MP_Bcast             2628                 123343.
 MP_Allreduce         2969                   1245.
 MP_Sync              3669
 MP_Alltoall          7403              210456482.
 MP_SendRecv          4080                   2268.
 MP_ISendRecv       349605                   6632.
 MP_Wait            376757
 MP_comm_split           4
 MP_ISend            90032                  99146.
 MP_IRecv            90314                  98842.
 MP_Recv               298                1027368.
 -------------------------------------------------------------------------------


 -------------------------------------------------------------------------------
 -                                                                             -
 -                           R E F E R E N C E S                               -
 -                                                                             -
 -------------------------------------------------------------------------------
 
 CP2K version 2022.1 (Development Version), the CP2K developers group (2022).
 CP2K is freely available from https://www.cp2k.org/ .

 Kuehne,Thomas D.; Iannuzzi,Marcella; Del Ben,Mauro;
 Rybkin,Vladimir V.; Seewald,Patrick; Stein,Frederick; Laino,Teodoro;
 Khaliullin,Rustam Z.; Schuett,Ole; Schiffmann,Florian; Golze,Dorothea;
 Wilhelm,Jan; Chulkov,Sergey; Bani-Hashemian,Mohammad Hossein;
 Weber,Valery; Borstnik,Urban; Taillefumier,Mathieu;
 Jakobovits,Alice Shoshana; Lazzaro,Alfio; Pabst,Hans; Mueller,Tiziano;
 Schade,Robert; Guidon,Manuel; Andermatt,Samuel; Holmberg,Nico;
 Schenter,Gregory K.; Hehn,Anna; Bussy,Augustin; Belleflamme,Fabian;
 Tabacchi,Gloria; Gloess,Andreas; Lass,Michael; Bethune,Iain;
 Mundy,Christopher J.; Plessl,Christian; Watkins,Matt;
 VandeVondele,Joost; Krack,Matthias; Hutter,Juerg. 
 The Journal of Chemical Physics, 152 (19), (2020). 
 CP2K: An electronic structure and molecular dynamics software package -
 Quickstep: Efficient and accurate electronic structure calculations.
 https://doi.org/10.1063/5.0007045

 Goerigk, Lars; Hansen, Andreas; Bauer, Christoph; Ehrlich, Stephan;
 Najibi, Asim; Grimme, Stefan. , 19 (48), (2017). 
 A look at the density functional theory zoo with the advanced GMTKN55 database
 for general main group thermochemistry, kinetics and noncovalent interactions.
 https://doi.org/10.1039/C7CP04913G

 Schuett, Ole; Messmer, Peter; Hutter, Juerg; VandeVondele, Joost. 
 Electronic Structure Calculations on Graphics Processing Units, John
 Wiley & Sons, Ltd, 173-190 (2016). 
 GPU-Accelerated Sparse Matrix-Matrix Multiplication for
 Linear Scaling Density Functional Theory.
 https://doi.org/10.1002/9781118670712.ch8

 Heinecke, A; Henry, G; Hutchinson, M; Pabst, H. 
 Proceedings of Intl. Supercomputing Conference, 981-991 (2016). 
 LIBXSMM: Accelerating Small Matrix Multiplications
 by Runtime Code Generation.
 https://doi.org/10.1109/SC.2016.83

 Borstnik, U; VandeVondele, J; Weber, V; Hutter, J. 
 PARALLEL COMPUTING, 40 (5-6), 47-58 (2014). 
 Sparse matrix multiplication: The distributed block-compressed sparse
 row library.
 https://doi.org/10.1016/j.parco.2014.03.012

 Hutter, J; Iannuzzi, M; Schiffmann, F; VandeVondele, J. 
 WIREs Comput Mol Sci., 4 (1), 15-25 (2014). 
 CP2K: atomistic simulations of condensed matter systems.
 https://doi.org/10.1002/wcms.1159

 Marek, A; Blum, V; Johanni, R; Havu, V; Lang, B; Auckenthaler, T;
 Heinecke, A; Bungartz, H; Lederer, H. 
 Journal of Physics: Condensed Matter, 26 (21), (2014). 
 The ELPA library: scalable parallel eigenvalue solutions for
 electronic structure
 theory and computational science.
 https://doi.org/10.1088/0953-8984/26/21/213201

 Grimme, S; Ehrlich, S; Goerigk, L. 
 JOURNAL OF COMPUTATIONAL CHEMISTRY, 32, 1456 (2011). 
 Effect of the damping function in dispersion corrected density functional theory.
 https://doi.org/10.1002/jcc.21759

 Grimme, S; Antony, J; Ehrlich, S; Krieg, H. 
 JOURNAL OF CHEMICAL PHYSICS, 132 (15), 154104 (2010). 
 A consistent and accurate ab initio parametrization of density
 functional dispersion correction (DFT-D) for the 94 elements H-Pu.
 https://doi.org/10.1063/1.3382344

 VandeVondele, J; Hutter, J. 
 JOURNAL OF CHEMICAL PHYSICS, 127 (11), 114105 (2007). 
 Gaussian basis sets for accurate calculations on molecular systems in
 gas and condensed phases.
 https://doi.org/10.1063/1.2770708

 Kuhne, TD; Krack, M; Mohamed, FR; Parrinello, M. 
 PHYSICAL REVIEW LETTERS, 98 (6), 066401 (2007). 
 Efficient and accurate Car-Parrinello-like approach to
 Born-Oppenheimer molecular dynamics.
 https://doi.org/10.1103/PhysRevLett.98.066401

 Krack, M. 
 THEORETICAL CHEMISTRY ACCOUNTS, 114 (1-3), 145-152 (2005). 
 Pseudopotentials for H to Kr optimized for gradient-corrected
 exchange-correlation functionals.
 https://doi.org/10.1007/s00214-005-0655-y

 VandeVondele, J; Krack, M; Mohamed, F; Parrinello, M; Chassaing, T;
 Hutter, J. COMPUTER PHYSICS COMMUNICATIONS, 167 (2), 103-128 (2005). 
 QUICKSTEP: Fast and accurate density functional calculations using a
 mixed Gaussian and plane waves approach.
 https://doi.org/10.1016/j.cpc.2004.12.014

 Frigo, M; Johnson, SG. 
 PROCEEDINGS OF THE IEEE, 93 (2), 216-231 (2005). 
 The design and implementation of FFTW3.
 https://doi.org/10.1109/JPROC.2004.840301

 Kolafa, J. 
 JOURNAL OF COMPUTATIONAL CHEMISTRY, 25 (3), 335-342 (2004). 
 Time-reversible always stable predictor-corrector method for
 molecular dynamics of polarizable molecules.
 https://doi.org/10.1002/jcc.10385

 VandeVondele, J; Hutter, J. 
 JOURNAL OF CHEMICAL PHYSICS, 118 (10), 4365-4369 (2003). 
 An efficient orbital transformation method for electronic structure
 calculations.
 https://doi.org/10.1063/1.1543154

 Hartwigsen, C; Goedecker, S; Hutter, J. 
 PHYSICAL REVIEW B, 58 (7), 3641-3662 (1998). 
 Relativistic separable dual-space Gaussian pseudopotentials from H to Rn.
 https://doi.org/10.1103/PhysRevB.58.3641

 Lippert, G; Hutter, J; Parrinello, M. 
 MOLECULAR PHYSICS, 92 (3), 477-487 (1997). 
 A hybrid Gaussian and plane wave density functional scheme.
 https://doi.org/10.1080/002689797170220

 Perdew, JP; Burke, K; Ernzerhof, M. 
 PHYSICAL REVIEW LETTERS, 77 (18), 3865-3868 (1996). 
 Generalized gradient approximation made simple.
 https://doi.org/10.1103/PhysRevLett.77.3865

 Goedecker, S; Teter, M; Hutter, J. 
 PHYSICAL REVIEW B, 54 (3), 1703-1710 (1996). 
 Separable dual-space Gaussian pseudopotentials.
 https://doi.org/10.1103/PhysRevB.54.1703


 -------------------------------------------------------------------------------
 -                                                                             -
 -                                T I M I N G                                  -
 -                                                                             -
 -------------------------------------------------------------------------------
 SUBROUTINE                       CALLS  ASD         SELF TIME        TOTAL TIME
                                MAXIMUM       AVERAGE  MAXIMUM  AVERAGE  MAXIMUM
 CP2K                                 1  1.0    0.018    0.038  269.040  269.041
 cp_geo_opt                           1  2.0    0.000    0.001  268.644  268.646
 geoopt_bfgs                          1  3.0    0.007    0.011  268.644  268.645
 cp_eval_at                           5  4.0    0.001    0.002  268.158  268.167
 qs_energies                          5  5.8    0.001    0.002  257.271  257.287
 scf_env_do_scf                       5  6.8    0.001    0.001  250.568  250.571
 qs_forces                            4  5.0    0.001    0.001  243.607  243.608
 scf_env_do_scf_inner_loop          224  7.9    0.006    0.015  242.995  243.369
 rebuild_ks_matrix                  228  9.9    0.002    0.003  118.971  119.873
 qs_ks_build_kohn_sham_matrix       228 10.9    0.038    0.046  118.969  119.872
 qs_ks_update_qs_env                233  8.9    0.003    0.004  115.878  116.764
 sum_up_and_integrate               228 11.9    0.076    0.099   94.187   94.283
 integrate_v_rspace                 228 12.9    0.007    0.012   94.111   94.205
 rs_pw_transfer                    2294 13.4    0.033    0.041   62.069   83.668
 qs_rho_update_rho_low              229  8.9    0.002    0.002   81.717   82.100
 calculate_rho_elec                 229  9.9    0.042    0.044   81.716   82.098
 grid_integrate_task_list           228 13.9   42.296   60.305   42.296   60.305
 density_rs2pw                      229 10.9    0.010    0.013   37.485   59.254
 grid_collocate_task_list           229 10.9   42.057   57.469   42.057   57.469
 mp_waitany                       17510 15.4   32.059   56.735   32.059   56.735
 dbcsr_multiply_generic            4178 13.9    0.155    0.166   53.024   55.788
 qs_scf_new_mos                     224  8.9    0.001    0.002   51.713   52.167
 qs_scf_loop_do_ot                  224  9.9    0.001    0.002   51.711   52.166
 ot_scf_mini                        224 10.9    0.006    0.007   48.037   48.529
 mp_alltoall_d11v                  2351 15.5   22.188   47.391   22.188   47.391
 multiply_cannon                   4178 14.9    0.285    0.369   38.500   45.370
 rs_gather_matrices                 228 13.9    0.113    0.183   19.938   45.266
 rs_pw_transfer_RS2PW_150           234 12.9    4.065    9.830   21.973   44.194
 multiply_cannon_loop              4178 15.9    0.278    0.303   36.326   42.971
 ot_mini                            224 11.9    0.003    0.005   33.136   33.738
 potential_pw2rs                    228 13.9    0.011    0.014   31.824   31.931
 multiply_cannon_multrec          66848 16.9   21.060   28.303   21.073   28.316
 qs_ot_get_derivative               224 12.9    0.001    0.002   26.220   26.686
 mp_waitall_1                    960879 17.0   19.805   26.119   19.805   26.119
 pw_transfer                       4799 14.0    0.358    0.496   21.819   22.594
 fft_wrap_pw1pw2                   4343 15.1    0.043    0.058   21.312   22.042
 fft_wrap_pw1pw2_150               2515 16.6    1.258    1.352   18.680   19.531
 qs_ot_get_derivative_taylor        224 13.9    0.004    0.006   18.172   18.661
 rs_pw_transfer_PW2RS_150           232 15.8   11.148   11.588   17.358   17.797
 fft3d_pb                          2515 17.6    4.357    5.197   15.911   16.764
 qs_vxc_create                      228 11.9    0.007    0.009   16.480   16.615
 xc_vxc_pw_create                   228 12.9    0.098    0.134   16.473   16.607
 rs_pw_transfer_RS2PW_50            229 12.9    2.934    4.471    9.385   15.508
 multiply_cannon_metrocomm1       66848 16.9    0.129    0.141    9.222   14.402
 xc_pw_derive                      1368 14.9    0.010    0.012   12.021   12.760
 mp_alltoall_z22v                  6858 19.3    9.950   11.909    9.950   11.909
 rs_pw_transfer_PW2RS_50            228 15.9    2.456    3.685    8.931   10.257
 multiply_cannon_metrocomm3       66848 16.9    0.114    0.121    2.998    9.819
 make_m2s                          8356 14.9    0.099    0.113    8.244    8.916
 xc_rho_set_and_dset_create         228 13.9    0.196    0.241    8.553    8.673
 mp_sum_l                         20280 14.8    5.289    8.392    5.289    8.392
 xc_pw_divergence                   228 13.9    0.005    0.006    7.658    8.074
 make_images                       8356 15.9    0.213    0.239    7.304    7.947
 build_core_hamiltonian_matrix_       4  6.0    0.000    0.000    6.674    7.538
 mp_irecv_dv                     141529 17.8    2.266    7.450    2.266    7.450
 init_scf_loop                        9  7.9    0.000    0.001    7.180    7.182
 qs_ot_get_p                        233 11.8    0.001    0.002    6.440    6.865
 ot_diis_step                       224 12.9    0.021    0.022    6.593    6.594
 multiply_cannon_metrocomm2       62670 16.9    0.130    0.142    1.676    6.023
 apply_preconditioner_dbcsr         233 13.9    0.000    0.001    5.316    5.997
 apply_single                       233 14.9    0.001    0.001    5.316    5.996
 build_core_ppnl_forces               4  7.0    5.339    5.878    5.339    5.878
 mp_sum_d                          5042 13.2    2.839    5.538    2.839    5.538
 -------------------------------------------------------------------------------

 The number of warnings for this run is : 0
 
 -------------------------------------------------------------------------------
  **** **** ******  **  PROGRAM ENDED AT                 2023-04-19 15:54:08.665
 ***** ** ***  *** **   PROGRAM RAN ON                                 nid001103
 **    ****   ******    PROGRAM RAN BY                                  dpassero
 ***** **    ** ** **   PROGRAM PROCESS ID                                 37687
  **** **  *******  **  PROGRAM STOPPED IN /scratch/e1000/dpassero/MMM_2023/jbac
                                           hmann/grimme_d3/pt_slab/slab
