 DBCSR| CPU Multiplication driver                                           XSMM
 DBCSR| Multrec recursion limit                                              512
 DBCSR| Multiplication stack size                                           1000
 DBCSR| Maximum elements for images                                    UNLIMITED
 DBCSR| Multiplicative factor virtual images                                   1
 DBCSR| Use multiplication densification                                       T
 DBCSR| Multiplication size stacks                                             3
 DBCSR| Use memory pool for CPU allocation                                     F
 DBCSR| Number of 3D layers                                               SINGLE
 DBCSR| Use MPI memory allocation                                              F
 DBCSR| Use RMA algorithm                                                      F
 DBCSR| Use Communication thread                                               T
 DBCSR| Communication thread load                                             87
 DBCSR| MPI: My node id                                                        0
 DBCSR| MPI: Number of nodes                                                 256
 DBCSR| OMP: Current number of threads                                         1
 DBCSR| OMP: Max number of threads                                             1
 DBCSR| Split modifier for TAS multiplication algorithm                  1.0E+00


  **** **** ******  **  PROGRAM STARTED AT               2023-04-19 15:47:17.602
 ***** ** ***  *** **   PROGRAM STARTED ON                             nid001103
 **    ****   ******    PROGRAM STARTED BY                              dpassero
 ***** **    ** ** **   PROGRAM PROCESS ID                                 36529
  **** **  *******  **  PROGRAM STARTED IN /scratch/e1000/dpassero/MMM_2023/jbac
                                           hmann/grimme_d3/ethane/mol

 CP2K| version string:                 CP2K version 2022.1 (Development Version)
 CP2K| source code revision number:                                  git:4ddb46c
 CP2K| cp2kflags: omp libint fftw3 libxc elpa parallel mpi3 scalapack xsmm max_c
 CP2K|            ontr=4 plumed2 spglib
 CP2K| is freely available from                            https://www.cp2k.org/
 CP2K| Program compiled at                      Wed 14 Sep 2022 12:18:41 PM CEST
 CP2K| Program compiled on                                             nid001080
 CP2K| Program compiled for                                 Eiger-gfortran_May22
 CP2K| Data directory path         /users/mmi/DEV/CP2K/trunk_new/eiger/cp2k/data
 CP2K| Input file name        /scratch/e1000/dpassero/MMM_2023/jbachmann/grimme_

 GLOBAL| Force Environment number                                              1
 GLOBAL| Basis set file name                                        BASIS_MOLOPT
 GLOBAL| Potential file name                                           POTENTIAL
 GLOBAL| MM Potential file name                                     MM_POTENTIAL
 GLOBAL| Coordinate file name                                     ethane_mol.xyz
 GLOBAL| Method name                                                        CP2K
 GLOBAL| Project name                                                 ethane_mol
 GLOBAL| Run type                                                        GEO_OPT
 GLOBAL| FFT library                                                       FFTW3
 GLOBAL| Diagonalization library                                            ELPA
 GLOBAL| DGEMM library                                                      BLAS
 GLOBAL| Minimum number of eigenvectors for ELPA usage                        16
 GLOBAL| Orthonormality check for eigenvectors                          DISABLED
 GLOBAL| Matrix multiplication library                                 ScaLAPACK
 GLOBAL| All-to-all communication in single precision                          F
 GLOBAL| FFTs using library dependent lengths                                  T
 GLOBAL| Grid backend                                                       AUTO
 GLOBAL| Global print level                                                  LOW
 GLOBAL| MPI I/O enabled                                                       T
 GLOBAL| Total number of message passing processes                           256
 GLOBAL| Number of threads for this process                                    1
 GLOBAL| This output is from process                                           0
 GLOBAL| Stack size for threads created by OpenMP (OMP_STACKSIZE)           100M
 GLOBAL| CPU model name                          AMD EPYC 7742 64-Core Processor
 GLOBAL| CPUID                                                              1002

 MEMORY| system memory details [Kb]
 MEMORY|                        rank 0           min           max       average
 MEMORY| MemTotal            263506204     263506204     263506204     263506204
 MEMORY| MemFree             228424636     225526724     228424636     226975680
 MEMORY| Buffers                321180        321180        592528        456854
 MEMORY| Cached                6765044       6765044       8958820       7861933
 MEMORY| Slab                  7983452       7983452       8160184       8071820
 MEMORY| SReclaimable           702096        702096        861356        781726
 MEMORY| MemLikelyFree       236212956     235939428     236212960     236076193


 GENERATE|  Preliminary Number of Bonds generated:                             0
 GENERATE|  Achieved consistency in connectivity generation.

 *******************************************************************************
 *******************************************************************************
 **                                                                           **
 **     #####                         ##              ##                      **
 **    ##   ##            ##          ##              ##                      **
 **   ##     ##                       ##            ######                    **
 **   ##     ##  ##   ##  ##   #####  ##  ##   ####   ##    #####    #####    **
 **   ##     ##  ##   ##  ##  ##      ## ##   ##      ##   ##   ##  ##   ##   **
 **   ##  ## ##  ##   ##  ##  ##      ####     ###    ##   ######   ######    **
 **    ##  ###   ##   ##  ##  ##      ## ##      ##   ##   ##       ##        **
 **     #######   #####   ##   #####  ##  ##  ####    ##    #####   ##        **
 **           ##                                                    ##        **
 **                                                                           **
 **                                                ... make the atoms dance   **
 **                                                                           **
 **            Copyright (C) by CP2K developers group (2000-2022)             **
 **                      J. Chem. Phys. 152, 194103 (2020)                    **
 **                                                                           **
 *******************************************************************************


 TOTAL NUMBERS AND MAXIMUM NUMBERS

  Total number of            - Atomic kinds:                                   2
                             - Atoms:                                          8
                             - Shell sets:                                     8
                             - Shells:                                        28
                             - Primitive Cartesian functions:                 56
                             - Cartesian basis functions:                     58
                             - Spherical basis functions:                     56

  Maximum angular momentum of- Orbital basis functions:                        2
                             - Local part of the GTH pseudopotential:          2
                             - Non-local part of the GTH pseudopotential:      0


 SCF PARAMETERS         Density guess:                                   RESTART
                        --------------------------------------------------------
                        max_scf:                                              30
                        max_scf_history:                                       0
                        max_diis:                                              4
                        --------------------------------------------------------
                        eps_scf:                                        1.00E-06
                        eps_scf_history:                                0.00E+00
                        eps_diis:                                       1.00E-01
                        eps_eigval:                                     1.00E-05
                        --------------------------------------------------------
                        level_shift [a.u.]:                             0.000000
                        --------------------------------------------------------
                        Outer loop SCF in use 
                        No variables optimised in outer loop
                        eps_scf                                         1.00E-06
                        max_scf                                               20
                        No outer loop optimization
                        step_size                                       5.00E-01

 BFGS| Use rational function optimization for step estimation:                NO
 BFGS| Use model Hessian for initial guess:                                  YES
 BFGS| Restart Hessian:                                                       NO
 BFGS| Trust radius:                                                       0.100

 *******************************************************************************
 ***                     STARTING GEOMETRY OPTIMIZATION                      ***
 ***                                   BFGS                                  ***
 *******************************************************************************

 Number of electrons:                                                         14
 Number of occupied orbitals:                                                  7
 Number of molecular orbitals:                                                 7

 Number of orbital functions:                                                 56
 Number of independent orbital functions:                                     56

 Extrapolation method: initial_guess


 SCF WAVEFUNCTION OPTIMIZATION

  ----------------------------------- OT ---------------------------------------
  Minimizer      : DIIS                : direct inversion
                                         in the iterative subspace
                                         using   7 DIIS vectors
                                         safer DIIS on
  Preconditioner : FULL_KINETIC        : inversion of T + eS
  Precond_solver : DEFAULT
  stepsize       :    0.15000000                  energy_gap     :    0.20000000
  eps_taylor     :   0.10000E-15                  max_taylor     :             4
  ----------------------------------- OT ---------------------------------------

  Step     Update method      Time    Convergence         Total energy    Change
  ------------------------------------------------------------------------------
     1 OT DIIS     0.15E+00    0.3     0.00488883       -14.9552793874 -1.50E+01
     2 OT DIIS     0.15E+00    0.4     0.00258457       -14.9563225146 -1.04E-03
     3 OT DIIS     0.15E+00    0.4     0.00097340       -14.9567608829 -4.38E-04
     4 OT DIIS     0.15E+00    0.4     0.00025535       -14.9568358628 -7.50E-05
     5 OT DIIS     0.15E+00    0.4     0.00006410       -14.9568412273 -5.36E-06
     6 OT DIIS     0.15E+00    0.4     0.00002571       -14.9568416294 -4.02E-07
     7 OT DIIS     0.15E+00    0.4     0.00001004       -14.9568417082 -7.88E-08
     8 OT DIIS     0.15E+00    0.4     0.00000539       -14.9568417169 -8.65E-09
     9 OT DIIS     0.15E+00    0.4     0.00000165       -14.9568417194 -2.51E-09
    10 OT DIIS     0.15E+00    0.4     0.00000098       -14.9568417196 -2.15E-10

  *** SCF run converged in    10 steps ***


  Electronic density on regular grids:        -14.0000000067       -0.0000000067
  Core density on regular grids:               14.0000000004        0.0000000004
  Total charge density on r-space grids:       -0.0000000063
  Total charge density g-space grids:          -0.0000000063

  Overlap energy of the core charge distribution:               0.00000174899676
  Self energy of the core charge distribution:                -35.13285960674677
  Core Hamiltonian energy:                                     11.43500076139147
  Hartree energy:                                              14.41160135566632
  Exchange-correlation energy:                                 -5.66962309916427
  Dispersion energy:                                           -0.00096287973160

  Total energy:                                               -14.95684171958809

  outer SCF iter =    1 RMS gradient =   0.98E-06 energy =        -14.9568417196
  outer SCF loop converged in   1 iterations or   10 steps


 ENERGY| Total FORCE_EVAL ( QS ) energy [a.u.]:              -14.956841719687597

 --------  Informations at step =     0 ------------
  Optimization Method        =                 BFGS
  Total Energy               =       -14.9568417197
  Used time                  =                4.773
 ---------------------------------------------------

 --------------------------
 OPTIMIZATION STEP:      1
 --------------------------

 Number of electrons:                                                         14
 Number of occupied orbitals:                                                  7
 Number of molecular orbitals:                                                 7

 Number of orbital functions:                                                 56
 Number of independent orbital functions:                                     56

 Extrapolation method: ASPC


 SCF WAVEFUNCTION OPTIMIZATION

  ----------------------------------- OT ---------------------------------------
  Minimizer      : DIIS                : direct inversion
                                         in the iterative subspace
                                         using   7 DIIS vectors
                                         safer DIIS on
  Preconditioner : FULL_KINETIC        : inversion of T + eS
  Precond_solver : DEFAULT
  stepsize       :    0.15000000                  energy_gap     :    0.20000000
  eps_taylor     :   0.10000E-15                  max_taylor     :             4
  ----------------------------------- OT ---------------------------------------

  Step     Update method      Time    Convergence         Total energy    Change
  ------------------------------------------------------------------------------
     1 OT DIIS     0.15E+00    0.2     0.00052740       -14.9570026132 -1.50E+01
     2 OT DIIS     0.15E+00    0.4     0.00028309       -14.9570149428 -1.23E-05
     3 OT DIIS     0.15E+00    0.4     0.00010435       -14.9570204028 -5.46E-06
     4 OT DIIS     0.15E+00    0.4     0.00004939       -14.9570213237 -9.21E-07
     5 OT DIIS     0.15E+00    0.4     0.00001645       -14.9570215827 -2.59E-07
     6 OT DIIS     0.15E+00    0.4     0.00000526       -14.9570216113 -2.86E-08
     7 OT DIIS     0.15E+00    0.4     0.00000235       -14.9570216144 -3.04E-09
     8 OT DIIS     0.15E+00    0.4     0.00000124       -14.9570216151 -6.99E-10
     9 OT DIIS     0.15E+00    0.4     0.00000066       -14.9570216152 -1.85E-10

  *** SCF run converged in     9 steps ***


  Electronic density on regular grids:        -14.0000000051       -0.0000000051
  Core density on regular grids:               14.0000000003        0.0000000003
  Total charge density on r-space grids:       -0.0000000049
  Total charge density g-space grids:          -0.0000000049

  Overlap energy of the core charge distribution:               0.00000154120575
  Self energy of the core charge distribution:                -35.13285960674677
  Core Hamiltonian energy:                                     11.40217904495530
  Hartree energy:                                              14.43361764025689
  Exchange-correlation energy:                                 -5.65899233124186
  Dispersion energy:                                           -0.00096790366810

  Total energy:                                               -14.95702161523879

  outer SCF iter =    1 RMS gradient =   0.66E-06 energy =        -14.9570216152
  outer SCF loop converged in   1 iterations or    9 steps


 ENERGY| Total FORCE_EVAL ( QS ) energy [a.u.]:              -14.957021615299597

 --------  Informations at step =     1 ------------
  Optimization Method        =                 BFGS
  Total Energy               =       -14.9570216153
  Real energy change         =        -0.0001798956
  Predicted change in energy =        -0.0001344509
  Scaling factor             =         0.0000000000
  Step size                  =         0.0105498204
  Trust radius               =         0.1000000000
  Decrease in energy         =                  YES
  Used time                  =                4.104

  Convergence check :
  Max. step size             =         0.0105498204
  Conv. limit for step size  =         0.0200000000
  Convergence in step size   =                  YES
  RMS step size              =         0.0061516201
  Conv. limit for RMS step   =         0.0200000000
  Convergence in RMS step    =                  YES
  Max. gradient              =         0.0010594351
  Conv. limit for gradients  =         0.0030000000
  Conv. in gradients         =                  YES
  RMS gradient               =         0.0007064052
  Conv. limit for RMS grad.  =         0.0010000000
  Conv. in RMS gradients     =                  YES
 ---------------------------------------------------
 Estimated peak process memory after this step [MiB]                         270

 *******************************************************************************
 ***                    GEOMETRY OPTIMIZATION COMPLETED                      ***
 *******************************************************************************

                    Reevaluating energy at the minimum

 Number of electrons:                                                         14
 Number of occupied orbitals:                                                  7
 Number of molecular orbitals:                                                 7

 Number of orbital functions:                                                 56
 Number of independent orbital functions:                                     56

 Extrapolation method: ASPC


 SCF WAVEFUNCTION OPTIMIZATION

  ----------------------------------- OT ---------------------------------------
  Minimizer      : DIIS                : direct inversion
                                         in the iterative subspace
                                         using   7 DIIS vectors
                                         safer DIIS on
  Preconditioner : FULL_KINETIC        : inversion of T + eS
  Precond_solver : DEFAULT
  stepsize       :    0.15000000                  energy_gap     :    0.20000000
  eps_taylor     :   0.10000E-15                  max_taylor     :             4
  ----------------------------------- OT ---------------------------------------

  Step     Update method      Time    Convergence         Total energy    Change
  ------------------------------------------------------------------------------
     1 OT DIIS     0.15E+00    0.2     0.00052742       -14.9570026031 -1.50E+01
     2 OT DIIS     0.15E+00    0.4     0.00028316       -14.9570149328 -1.23E-05
     3 OT DIIS     0.15E+00    0.4     0.00010455       -14.9570203976 -5.46E-06
     4 OT DIIS     0.15E+00    0.4     0.00004950       -14.9570213225 -9.25E-07
     5 OT DIIS     0.15E+00    0.4     0.00001648       -14.9570215826 -2.60E-07
     6 OT DIIS     0.15E+00    0.4     0.00000527       -14.9570216113 -2.87E-08
     7 OT DIIS     0.15E+00    0.4     0.00000235       -14.9570216144 -3.04E-09
     8 OT DIIS     0.15E+00    0.4     0.00000124       -14.9570216151 -6.94E-10
     9 OT DIIS     0.15E+00    0.4     0.00000066       -14.9570216152 -1.83E-10

  *** SCF run converged in     9 steps ***


  Electronic density on regular grids:        -14.0000000051       -0.0000000051
  Core density on regular grids:               14.0000000003        0.0000000003
  Total charge density on r-space grids:       -0.0000000049
  Total charge density g-space grids:          -0.0000000049

  Overlap energy of the core charge distribution:               0.00000154120575
  Self energy of the core charge distribution:                -35.13285960674677
  Core Hamiltonian energy:                                     11.40217404323261
  Hartree energy:                                              14.43362078139743
  Exchange-correlation energy:                                 -5.65899047065960
  Dispersion energy:                                           -0.00096790366810

  Total energy:                                               -14.95702161523868

  outer SCF iter =    1 RMS gradient =   0.66E-06 energy =        -14.9570216152
  outer SCF loop converged in   1 iterations or    9 steps


 ENERGY| Total FORCE_EVAL ( QS ) energy [a.u.]:              -14.957021615238675

 -------------------------------------------------------------------------------
 -                                                                             -
 -                                DBCSR STATISTICS                             -
 -                                                                             -
 -------------------------------------------------------------------------------
 COUNTER                                    TOTAL       BLAS       SMM       ACC
 flops     7 x     7 x     7               135142       0.0%    100.0%      0.0%
 flops     5 x    13 x     7               180180       0.0%    100.0%      0.0%
 flops    13 x     5 x     7               180180       0.0%    100.0%      0.0%
 flops    13 x    13 x     7               234234       0.0%    100.0%      0.0%
 flops     5 x     5 x     7               242550       0.0%    100.0%      0.0%
 flops     7 x     7 x    13               277732       0.0%    100.0%      0.0%
 flops     7 x     7 x     5               320460       0.0%    100.0%      0.0%
 flops    13 x     7 x     7               349076       0.0%    100.0%      0.0%
 flops     5 x     7 x     7               402780       0.0%    100.0%      0.0%
 flops    13 x     7 x    13               908544       0.0%    100.0%      0.0%
 flops    13 x     7 x     5              1048320       0.0%    100.0%      0.0%
 flops     5 x     7 x    13              1048320       0.0%    100.0%      0.0%
 flops     5 x     7 x     5              1209600       0.0%    100.0%      0.0%
 flops inhomo. stacks                           0       0.0%      0.0%      0.0%
 flops total                         6.537118E+06       0.0%    100.0%      0.0%
 flops max/rank                      1.964382E+06       0.0%    100.0%      0.0%
 matmuls inhomo. stacks                         0       0.0%      0.0%      0.0%
 matmuls total                               9497       0.0%    100.0%      0.0%
 number of processed stacks                  9497       0.0%    100.0%      0.0%
 average stack size                                     0.0       1.0       0.0
 marketing flops                     7.165268E+06
 -------------------------------------------------------------------------------
 # multiplications                            575
 max memory usage/rank             285.356032E+06
 # max total images/rank                        1
 # max 3D layers                                1
 # MPI messages exchanged                 4416000
 MPI messages size (bytes):
  total size                        63.568680E+06
  min size                           0.000000E+00
  max size                           1.352000E+03
  average size                      14.395082E+00
 MPI breakdown and total messages size (bytes):
             size <=      128             4253835                        0
       128 < size <=     8192              162165                 63568680
      8192 < size <=    32768                   0                        0
     32768 < size <=   131072                   0                        0
    131072 < size <=  4194304                   0                        0
   4194304 < size <= 16777216                   0                        0
  16777216 < size                               0                        0
 -------------------------------------------------------------------------------
 -                                                                             -
 -                      DBCSR MESSAGE PASSING PERFORMANCE                      -
 -                                                                             -
 -------------------------------------------------------------------------------
 ROUTINE             CALLS      AVE VOLUME [Bytes]
 MP_Bcast               14                     12.
 MP_Allreduce         3092                      8.
 MP_Alltoall          1977                  68800.
 MP_ISend            36788                    108.
 MP_IRecv            36788                     93.
 -------------------------------------------------------------------------------

 -------------------------------------------------------------------------------
 -                                                                             -
 -                                DBM STATISTICS                               -
 -                                                                             -
 -------------------------------------------------------------------------------
    M  x    N  x    K                                          COUNT     PERCENT
 -------------------------------------------------------------------------------

 -------------------------------------------------------------------------------
 -                                                                             -
 -                                GRID STATISTICS                              -
 -                                                                             -
 -------------------------------------------------------------------------------
 LP    KERNEL             BACKEND                              COUNT     PERCENT
 2     collocate general  REF                                  48639      28.04%
 2     integrate general  REF                                  43932      25.32%
 3     integrate general  REF                                  28506      16.43%
 3     collocate general  REF                                  28086      16.19%
 4     integrate general  REF                                   7440       4.29%
 4     collocate general  REF                                   6231       3.59%
 0     collocate general  REF                                   6144       3.54%
 1     integrate general  REF                                   4096       2.36%
 5     integrate general  REF                                    402       0.23%
 -------------------------------------------------------------------------------

 MEMORY| Estimated peak process memory [MiB]                                 273

 -------------------------------------------------------------------------------
 -                                                                             -
 -                         MESSAGE PASSING PERFORMANCE                         -
 -                                                                             -
 -------------------------------------------------------------------------------

 ROUTINE             CALLS      AVE VOLUME [Bytes]
 MP_Group                5
 MP_Bcast              217                1703033.
 MP_Allreduce          864                   3205.
 MP_Sync               497
 MP_Alltoall          1029              205202490.
 MP_SendRecv          2040                     80.
 MP_ISendRecv        46665                   6789.
 MP_Wait             50369
 MP_comm_split           2
 MP_ISend            11476                  96333.
 MP_IRecv            11742                  94209.
 MP_Recv                29                    424.
 -------------------------------------------------------------------------------


 -------------------------------------------------------------------------------
 -                                                                             -
 -                           R E F E R E N C E S                               -
 -                                                                             -
 -------------------------------------------------------------------------------
 
 CP2K version 2022.1 (Development Version), the CP2K developers group (2022).
 CP2K is freely available from https://www.cp2k.org/ .

 Kuehne,Thomas D.; Iannuzzi,Marcella; Del Ben,Mauro;
 Rybkin,Vladimir V.; Seewald,Patrick; Stein,Frederick; Laino,Teodoro;
 Khaliullin,Rustam Z.; Schuett,Ole; Schiffmann,Florian; Golze,Dorothea;
 Wilhelm,Jan; Chulkov,Sergey; Bani-Hashemian,Mohammad Hossein;
 Weber,Valery; Borstnik,Urban; Taillefumier,Mathieu;
 Jakobovits,Alice Shoshana; Lazzaro,Alfio; Pabst,Hans; Mueller,Tiziano;
 Schade,Robert; Guidon,Manuel; Andermatt,Samuel; Holmberg,Nico;
 Schenter,Gregory K.; Hehn,Anna; Bussy,Augustin; Belleflamme,Fabian;
 Tabacchi,Gloria; Gloess,Andreas; Lass,Michael; Bethune,Iain;
 Mundy,Christopher J.; Plessl,Christian; Watkins,Matt;
 VandeVondele,Joost; Krack,Matthias; Hutter,Juerg. 
 The Journal of Chemical Physics, 152 (19), (2020). 
 CP2K: An electronic structure and molecular dynamics software package -
 Quickstep: Efficient and accurate electronic structure calculations.
 https://doi.org/10.1063/5.0007045

 Goerigk, Lars; Hansen, Andreas; Bauer, Christoph; Ehrlich, Stephan;
 Najibi, Asim; Grimme, Stefan. , 19 (48), (2017). 
 A look at the density functional theory zoo with the advanced GMTKN55 database
 for general main group thermochemistry, kinetics and noncovalent interactions.
 https://doi.org/10.1039/C7CP04913G

 Schuett, Ole; Messmer, Peter; Hutter, Juerg; VandeVondele, Joost. 
 Electronic Structure Calculations on Graphics Processing Units, John
 Wiley & Sons, Ltd, 173-190 (2016). 
 GPU-Accelerated Sparse Matrix-Matrix Multiplication for
 Linear Scaling Density Functional Theory.
 https://doi.org/10.1002/9781118670712.ch8

 Heinecke, A; Henry, G; Hutchinson, M; Pabst, H. 
 Proceedings of Intl. Supercomputing Conference, 981-991 (2016). 
 LIBXSMM: Accelerating Small Matrix Multiplications
 by Runtime Code Generation.
 https://doi.org/10.1109/SC.2016.83

 Borstnik, U; VandeVondele, J; Weber, V; Hutter, J. 
 PARALLEL COMPUTING, 40 (5-6), 47-58 (2014). 
 Sparse matrix multiplication: The distributed block-compressed sparse
 row library.
 https://doi.org/10.1016/j.parco.2014.03.012

 Hutter, J; Iannuzzi, M; Schiffmann, F; VandeVondele, J. 
 WIREs Comput Mol Sci., 4 (1), 15-25 (2014). 
 CP2K: atomistic simulations of condensed matter systems.
 https://doi.org/10.1002/wcms.1159

 Marek, A; Blum, V; Johanni, R; Havu, V; Lang, B; Auckenthaler, T;
 Heinecke, A; Bungartz, H; Lederer, H. 
 Journal of Physics: Condensed Matter, 26 (21), (2014). 
 The ELPA library: scalable parallel eigenvalue solutions for
 electronic structure
 theory and computational science.
 https://doi.org/10.1088/0953-8984/26/21/213201

 Grimme, S; Ehrlich, S; Goerigk, L. 
 JOURNAL OF COMPUTATIONAL CHEMISTRY, 32, 1456 (2011). 
 Effect of the damping function in dispersion corrected density functional theory.
 https://doi.org/10.1002/jcc.21759

 Grimme, S; Antony, J; Ehrlich, S; Krieg, H. 
 JOURNAL OF CHEMICAL PHYSICS, 132 (15), 154104 (2010). 
 A consistent and accurate ab initio parametrization of density
 functional dispersion correction (DFT-D) for the 94 elements H-Pu.
 https://doi.org/10.1063/1.3382344

 VandeVondele, J; Hutter, J. 
 JOURNAL OF CHEMICAL PHYSICS, 127 (11), 114105 (2007). 
 Gaussian basis sets for accurate calculations on molecular systems in
 gas and condensed phases.
 https://doi.org/10.1063/1.2770708

 Kuhne, TD; Krack, M; Mohamed, FR; Parrinello, M. 
 PHYSICAL REVIEW LETTERS, 98 (6), 066401 (2007). 
 Efficient and accurate Car-Parrinello-like approach to
 Born-Oppenheimer molecular dynamics.
 https://doi.org/10.1103/PhysRevLett.98.066401

 Krack, M. 
 THEORETICAL CHEMISTRY ACCOUNTS, 114 (1-3), 145-152 (2005). 
 Pseudopotentials for H to Kr optimized for gradient-corrected
 exchange-correlation functionals.
 https://doi.org/10.1007/s00214-005-0655-y

 VandeVondele, J; Krack, M; Mohamed, F; Parrinello, M; Chassaing, T;
 Hutter, J. COMPUTER PHYSICS COMMUNICATIONS, 167 (2), 103-128 (2005). 
 QUICKSTEP: Fast and accurate density functional calculations using a
 mixed Gaussian and plane waves approach.
 https://doi.org/10.1016/j.cpc.2004.12.014

 Frigo, M; Johnson, SG. 
 PROCEEDINGS OF THE IEEE, 93 (2), 216-231 (2005). 
 The design and implementation of FFTW3.
 https://doi.org/10.1109/JPROC.2004.840301

 Kolafa, J. 
 JOURNAL OF COMPUTATIONAL CHEMISTRY, 25 (3), 335-342 (2004). 
 Time-reversible always stable predictor-corrector method for
 molecular dynamics of polarizable molecules.
 https://doi.org/10.1002/jcc.10385

 VandeVondele, J; Hutter, J. 
 JOURNAL OF CHEMICAL PHYSICS, 118 (10), 4365-4369 (2003). 
 An efficient orbital transformation method for electronic structure
 calculations.
 https://doi.org/10.1063/1.1543154

 Hartwigsen, C; Goedecker, S; Hutter, J. 
 PHYSICAL REVIEW B, 58 (7), 3641-3662 (1998). 
 Relativistic separable dual-space Gaussian pseudopotentials from H to Rn.
 https://doi.org/10.1103/PhysRevB.58.3641

 Lippert, G; Hutter, J; Parrinello, M. 
 MOLECULAR PHYSICS, 92 (3), 477-487 (1997). 
 A hybrid Gaussian and plane wave density functional scheme.
 https://doi.org/10.1080/002689797170220

 Perdew, JP; Burke, K; Ernzerhof, M. 
 PHYSICAL REVIEW LETTERS, 77 (18), 3865-3868 (1996). 
 Generalized gradient approximation made simple.
 https://doi.org/10.1103/PhysRevLett.77.3865

 Goedecker, S; Teter, M; Hutter, J. 
 PHYSICAL REVIEW B, 54 (3), 1703-1710 (1996). 
 Separable dual-space Gaussian pseudopotentials.
 https://doi.org/10.1103/PhysRevB.54.1703


 -------------------------------------------------------------------------------
 -                                                                             -
 -                                T I M I N G                                  -
 -                                                                             -
 -------------------------------------------------------------------------------
 SUBROUTINE                       CALLS  ASD         SELF TIME        TOTAL TIME
                                MAXIMUM       AVERAGE  MAXIMUM  AVERAGE  MAXIMUM
 CP2K                                 1  1.0    0.012    0.032   13.055   13.057
 cp_geo_opt                           1  2.0    0.000    0.001   12.715   12.715
 geoopt_bfgs                          1  3.0    0.003    0.004   12.715   12.715
 cp_eval_at                           3  4.0    0.001    0.001   12.682   12.683
 qs_energies                          3  5.7    0.013    0.014   12.102   12.107
 scf_env_do_scf                       3  6.7    0.000    0.000   11.182   11.183
 scf_env_do_scf_inner_loop           28  7.7    0.002    0.003   10.468   10.471
 qs_forces                            2  5.0    0.008    0.013    8.862    8.864
 rs_pw_transfer                     310 13.0    0.005    0.007    6.515    6.873
 rebuild_ks_matrix                   30  9.5    0.000    0.001    6.630    6.633
 qs_ks_build_kohn_sham_matrix        30 10.5    0.006    0.007    6.630    6.632
 qs_ks_update_qs_env                 31  8.7    0.000    0.000    6.068    6.070
 qs_rho_update_rho_low               31  8.7    0.000    0.001    4.996    4.998
 calculate_rho_elec                  31  9.7    0.006    0.006    4.996    4.998
 density_rs2pw                       31 10.7    0.001    0.002    3.643    4.049
 sum_up_and_integrate                30 11.5    0.009    0.010    3.738    3.979
 integrate_v_rspace                  30 12.5    0.001    0.002    3.729    3.971
 potential_pw2rs                     30 13.5    0.001    0.002    3.671    3.680
 pw_transfer                        639 13.6    0.047    0.062    3.027    3.185
 fft_wrap_pw1pw2                    579 14.7    0.006    0.007    2.958    3.106
 fft_wrap_pw1pw2_150                335 16.2    0.162    0.175    2.587    2.719
 fft3d_pb                           335 17.2    0.609    0.657    2.214    2.345
 rs_pw_transfer_RS2PW_150            34 12.6    1.383    1.441    1.938    2.273
 qs_vxc_create                       30 11.5    0.001    0.001    2.118    2.136
 xc_vxc_pw_create                    30 12.5    0.012    0.017    2.117    2.135
 rs_pw_transfer_PW2RS_150            32 15.2    1.250    1.311    2.008    2.069
 mp_waitany                        2398 15.0    1.656    2.013    1.656    2.013
 xc_pw_derive                       180 14.5    0.001    0.002    1.652    1.768
 mp_alltoall_z22v                   914 18.9    1.376    1.640    1.376    1.640
 grid_collocate_task_list            31 10.7    1.333    1.517    1.333    1.517
 rs_pw_transfer_PW2RS_50             30 15.5    0.563    0.619    1.087    1.172
 xc_pw_divergence                    30 13.5    0.001    0.001    1.063    1.155
 xc_rho_set_and_dset_create          30 13.5    0.025    0.030    1.019    1.127
 rs_pw_transfer_RS2PW_50             31 12.7    0.612    0.666    0.956    0.970
 dbcsr_multiply_generic             575 13.7    0.013    0.015    0.810    0.874
 init_scf_loop                        3  7.7    0.000    0.001    0.708    0.709
 cube_transpose_3                   181 18.0    0.070    0.083    0.562    0.690
 cube_transpose_4                   154 18.4    0.088    0.101    0.544    0.670
 init_scf_run                         3  6.7    0.000    0.000    0.621    0.622
 scf_env_initial_rho_setup            3  7.7    0.000    0.000    0.621    0.622
 qs_scf_new_mos                      28  8.7    0.000    0.000    0.563    0.565
 qs_ks_update_qs_env_forces           2  6.0    0.000    0.000    0.565    0.565
 qs_scf_loop_do_ot                   28  9.7    0.000    0.000    0.562    0.565
 mp_waitall_1                    130771 16.8    0.421    0.538    0.421    0.538
 ot_scf_mini                         28 10.7    0.000    0.000    0.533    0.535
 cube_transpose_1                   301 18.2    0.069    0.074    0.274    0.470
 cube_transpose_2                   278 17.2    0.047    0.053    0.269    0.455
 rs_grid_zero                        65 16.0    0.396    0.422    0.396    0.422
 fft3d_ps                           244 16.1    0.026    0.048    0.346    0.404
 ot_mini                             28 11.7    0.001    0.001    0.384    0.386
 mp_sum_l                          3093 13.4    0.315    0.381    0.315    0.381
 qs_ot_get_derivative                28 12.7    0.001    0.001    0.343    0.345
 wfi_extrapolate                      3  8.7    0.001    0.001    0.337    0.338
 grid_integrate_task_list            30 13.5    0.025    0.288    0.025    0.288
 multiply_cannon                    575 14.7    0.055    0.068    0.261    0.284
 mp_alltoall_d11v                   438 14.6    0.040    0.282    0.040    0.282
 qs_energies_init_hamiltonians        3  6.7    0.000    0.001    0.277    0.281
 qs_env_update_s_mstruct              3  7.7    0.000    0.000    0.269    0.274
 rs_pw_transfer_PW2RS_20             30 15.5    0.072    0.086    0.184    0.274
 rs_gather_matrices                  30 13.5    0.000    0.001    0.031    0.274
 -------------------------------------------------------------------------------

 The number of warnings for this run is : 0
 
 -------------------------------------------------------------------------------
  **** **** ******  **  PROGRAM ENDED AT                 2023-04-19 15:47:32.896
 ***** ** ***  *** **   PROGRAM RAN ON                                 nid001103
 **    ****   ******    PROGRAM RAN BY                                  dpassero
 ***** **    ** ** **   PROGRAM PROCESS ID                                 36529
  **** **  *******  **  PROGRAM STOPPED IN /scratch/e1000/dpassero/MMM_2023/jbac
                                           hmann/grimme_d3/ethane/mol
