       8
 i =        1, E =       -15.1978148751
  C        -0.0000039302       -0.0000019024        0.7619144750
  C         0.0000034310        0.0000024777       -0.7619145726
  H         0.0000002835        1.0161405344        1.1587533676
  H        -0.8800104967       -0.5080742043        1.1587504606
  H         0.8800040406       -0.5080711679        1.1587515787
  H        -0.0000000766       -1.0161411274       -1.1587513875
  H        -0.8800037845        0.5080715594       -1.1587531989
  H         0.8800105330        0.5080738562       -1.1587506919
       8
 i =        2, E =       -15.1978148750
  C        -0.0000039302       -0.0000019024        0.7619144750
  C         0.0000034310        0.0000024777       -0.7619145726
  H         0.0000002835        1.0161405344        1.1587533676
  H        -0.8800104967       -0.5080742043        1.1587504606
  H         0.8800040406       -0.5080711679        1.1587515787
  H        -0.0000000766       -1.0161411274       -1.1587513875
  H        -0.8800037845        0.5080715594       -1.1587531989
  H         0.8800105330        0.5080738562       -1.1587506919
       8
 i =        1, E =       -14.9570216153
  C        -0.0000020863       -0.0000013992        0.7633184674
  C         0.0000020855        0.0000014006       -0.7633184674
  H         0.0000097320        1.0222438640        1.1628117245
  H        -0.8852936232       -0.5111247191        1.1628109909
  H         0.8852943624       -0.5111139113        1.1628116463
  H        -0.0000097321       -1.0222438645       -1.1628117203
  H        -0.8852943619        0.5111139111       -1.1628116505
  H         0.8852936236        0.5111247183       -1.1628109909
       8
 i =        2, E =       -14.9570216152
  C        -0.0000020863       -0.0000013992        0.7633184674
  C         0.0000020855        0.0000014006       -0.7633184674
  H         0.0000097320        1.0222438640        1.1628117245
  H        -0.8852936232       -0.5111247191        1.1628109909
  H         0.8852943624       -0.5111139113        1.1628116463
  H        -0.0000097321       -1.0222438645       -1.1628117203
  H        -0.8852943619        0.5111139111       -1.1628116505
  H         0.8852936236        0.5111247183       -1.1628109909
