
     Program BANDS v.7.1 starts on 22Mar2023 at  9: 3:41 

     This program is part of the open-source Quantum ESPRESSO suite
     for quantum simulation of materials; please cite
         "P. Giannozzi et al., J. Phys.:Condens. Matter 21 395502 (2009);
         "P. Giannozzi et al., J. Phys.:Condens. Matter 29 465901 (2017);
         "P. Giannozzi et al., J. Chem. Phys. 152 154105 (2020);
          URL http://www.quantum-espresso.org", 
     in publications or presentations arising from this work. More details at
     http://www.quantum-espresso.org/quote

     Parallel version (MPI), running on     4 processors

     MPI processes distributed on     1 nodes
     K-points division:     npool     =       2
     R & G space division:  proc/nbgrp/npool/nimage =       2
     174156 MiB available memory on the printing compute node when the environment starts
 

     Reading xml data from directory:

     ./si.save/

     IMPORTANT: XC functional enforced from input :
     Exchange-correlation= PBE
                           (   1   4   3   4   0   0   0)
     Any further DFT definition will be discarded
     Please, verify this is what you really want

 
     Parallelization info
     --------------------
     sticks:   dense  smooth     PW     G-vecs:    dense   smooth      PW
     Min         536     291     93                11794     4628     795
     Max         539     292     94                11795     4629     796
     Sum        1075     583    187                23589     9257    1591
 
     Using Slab Decomposition
 
     Reading collected, re-writing distributed wavefunctions
     high-symmetry point: -1.0000 0.5000 0.0000   x coordinate   0.0000
     high-symmetry point:  0.0000 0.0000 0.0000   x coordinate   1.1180
     high-symmetry point: -1.0000 0.0000 0.0000   x coordinate   2.1180
     high-symmetry point: -1.0000 0.5000 0.0000   x coordinate   2.6180
     high-symmetry point: -0.5000 0.5000 0.5000   x coordinate   3.3251
     high-symmetry point:  0.0000 0.0000 0.0000   x coordinate   4.1912

     Plottable bands (eV) written to file si.band.gnu
     Bands written to file si.band

 **************************************************************************

                    xk=(  -1.00000,   0.50000,   0.00000  )

     zone border point and non-symmorphic group 
     symmetry decomposition not available

 **************************************************************************

 **************************************************************************

                    xk=(  -0.98333,   0.49167,  -0.00000  )

     point group C_s (m)    
     there are  2 classes
     the character table:

       E     s    
A'     1.00  1.00
A''    1.00 -1.00

     the symmetry operations in each class and the name of the first element:

     E        1
                                                                 
     s        2
                                                                 

     Band symmetry, C_s (m)     point group:

     e(  1 -  1) =     -1.53090  eV     1   --> A'             
     e(  2 -  2) =     -1.37437  eV     1   --> A''            
     e(  3 -  3) =      2.29588  eV     1   --> A'             
     e(  4 -  4) =      2.40840  eV     1   --> A''            
     e(  5 -  5) =     10.42091  eV     1   --> A''            
     e(  6 -  6) =     10.49485  eV     1   --> A'             
     e(  7 -  7) =     11.14363  eV     1   --> A''            
     e(  8 -  8) =     11.31413  eV     1   --> A'             
     e(  9 -  9) =     16.63384  eV     1   --> A'             
     e( 10 - 10) =     16.91435  eV     1   --> A''            

 **************************************************************************

 **************************************************************************

                    xk=(  -0.96667,   0.48333,   0.00000  )

     Band symmetry, C_s (m)     point group:

     e(  1 -  1) =     -1.61375  eV     1   --> A'             
     e(  2 -  2) =     -1.29416  eV     1   --> A''            
     e(  3 -  3) =      2.25063  eV     1   --> A'             
     e(  4 -  4) =      2.46999  eV     1   --> A''            
     e(  5 -  5) =     10.36703  eV     1   --> A''            
     e(  6 -  6) =     10.45349  eV     1   --> A'             
     e(  7 -  7) =     11.08364  eV     1   --> A''            
     e(  8 -  8) =     11.48775  eV     1   --> A'             
     e(  9 -  9) =     16.47129  eV     1   --> A'             
     e( 10 - 10) =     17.02497  eV     1   --> A''            

 **************************************************************************

 **************************************************************************

                    xk=(  -0.95000,   0.47500,  -0.00000  )

     Band symmetry, C_s (m)     point group:

     e(  1 -  1) =     -1.70055  eV     1   --> A'             
     e(  2 -  2) =     -1.21155  eV     1   --> A''            
     e(  3 -  3) =      2.21367  eV     1   --> A'             
     e(  4 -  4) =      2.53412  eV     1   --> A''            
     e(  5 -  5) =     10.31558  eV     1   --> A''            
     e(  6 -  6) =     10.38263  eV     1   --> A'             
     e(  7 -  7) =     11.02657  eV     1   --> A''            
     e(  8 -  8) =     11.69761  eV     1   --> A'             
     e(  9 -  9) =     16.29996  eV     1   --> A'             
     e( 10 - 10) =     17.10754  eV     1   --> A''            

 **************************************************************************

 **************************************************************************

                    xk=(  -0.93333,   0.46667,   0.00000  )

     Band symmetry, C_s (m)     point group:

     e(  1 -  1) =     -1.79106  eV     1   --> A'             
     e(  2 -  2) =     -1.12655  eV     1   --> A''            
     e(  3 -  3) =      2.18490  eV     1   --> A'             
     e(  4 -  4) =      2.60069  eV     1   --> A''            
     e(  5 -  5) =     10.26662  eV     1   --> A''            
     e(  6 -  6) =     10.29885  eV     1   --> A'             
     e(  7 -  7) =     10.97243  eV     1   --> A''            
     e(  8 -  8) =     11.92688  eV     1   --> A'             
     e(  9 -  9) =     16.12300  eV     1   --> A'             
     e( 10 - 10) =     17.15438  eV     1   --> A''            

 **************************************************************************

 **************************************************************************

                    xk=(  -0.91667,   0.45833,   0.00000  )

     Band symmetry, C_s (m)     point group:

     e(  1 -  1) =     -1.88497  eV     1   --> A'             
     e(  2 -  2) =     -1.03915  eV     1   --> A''            
     e(  3 -  3) =      2.16417  eV     1   --> A'             
     e(  4 -  4) =      2.66962  eV     1   --> A''            
     e(  5 -  5) =     10.20975  eV     1   --> A'             
     e(  6 -  6) =     10.22026  eV     1   --> A''            
     e(  7 -  7) =     10.92119  eV     1   --> A''            
     e(  8 -  8) =     12.16777  eV     1   --> A'             
     e(  9 -  9) =     15.94254  eV     1   --> A'             
     e( 10 - 10) =     17.15996  eV     1   --> A''            

 **************************************************************************

 **************************************************************************

                    xk=(  -0.90000,   0.45000,   0.00000  )

     Band symmetry, C_s (m)     point group:

     e(  1 -  1) =     -1.98198  eV     1   --> A'             
     e(  2 -  2) =     -0.94936  eV     1   --> A''            
     e(  3 -  3) =      2.15126  eV     1   --> A'             
     e(  4 -  4) =      2.74083  eV     1   --> A''            
     e(  5 -  5) =     10.11891  eV     1   --> A'             
     e(  6 -  6) =     10.17660  eV     1   --> A''            
     e(  7 -  7) =     10.87281  eV     1   --> A''            
     e(  8 -  8) =     12.41645  eV     1   --> A'             
     e(  9 -  9) =     15.76004  eV     1   --> A'             
     e( 10 - 10) =     17.12395  eV     1   --> A''            

 **************************************************************************

 **************************************************************************

                    xk=(  -0.88333,   0.44167,   0.00000  )

     Band symmetry, C_s (m)     point group:

     e(  1 -  1) =     -2.08173  eV     1   --> A'             
     e(  2 -  2) =     -0.85719  eV     1   --> A''            
     e(  3 -  3) =      2.14593  eV     1   --> A'             
     e(  4 -  4) =      2.81420  eV     1   --> A''            
     e(  5 -  5) =     10.02819  eV     1   --> A'             
     e(  6 -  6) =     10.13576  eV     1   --> A''            
     e(  7 -  7) =     10.82721  eV     1   --> A''            
     e(  8 -  8) =     12.67085  eV     1   --> A'             
     e(  9 -  9) =     15.57649  eV     1   --> A'             
     e( 10 - 10) =     17.05165  eV     1   --> A''            

 **************************************************************************

 **************************************************************************

                    xk=(  -0.86667,   0.43333,   0.00000  )

     Band symmetry, C_s (m)     point group:

     e(  1 -  1) =     -2.18386  eV     1   --> A'             
     e(  2 -  2) =     -0.76263  eV     1   --> A''            
     e(  3 -  3) =      2.14788  eV     1   --> A'             
     e(  4 -  4) =      2.88963  eV     1   --> A''            
     e(  5 -  5) =      9.93861  eV     1   --> A'             
     e(  6 -  6) =     10.09786  eV     1   --> A''            
     e(  7 -  7) =     10.78433  eV     1   --> A''            
     e(  8 -  8) =     12.92969  eV     1   --> A'             
     e(  9 -  9) =     15.39263  eV     1   --> A'             
     e( 10 - 10) =     16.95130  eV     1   --> A''            

 **************************************************************************

 **************************************************************************

                    xk=(  -0.85000,   0.42500,   0.00000  )

     Band symmetry, C_s (m)     point group:

     e(  1 -  1) =     -2.28798  eV     1   --> A'             
     e(  2 -  2) =     -0.66569  eV     1   --> A''            
     e(  3 -  3) =      2.15682  eV     1   --> A'             
     e(  4 -  4) =      2.96701  eV     1   --> A''            
     e(  5 -  5) =      9.85079  eV     1   --> A'             
     e(  6 -  6) =     10.06304  eV     1   --> A''            
     e(  7 -  7) =     10.74409  eV     1   --> A''            
     e(  8 -  8) =     13.19210  eV     1   --> A'             
     e(  9 -  9) =     15.20899  eV     1   --> A'             
     e( 10 - 10) =     16.83100  eV     1   --> A''            

 **************************************************************************

 **************************************************************************

                    xk=(  -0.83333,   0.41667,   0.00000  )

     Band symmetry, C_s (m)     point group:

     e(  1 -  1) =     -2.39374  eV     1   --> A'             
     e(  2 -  2) =     -0.56637  eV     1   --> A''            
     e(  3 -  3) =      2.17244  eV     1   --> A'             
     e(  4 -  4) =      3.04621  eV     1   --> A''            
     e(  5 -  5) =      9.76510  eV     1   --> A'             
     e(  6 -  6) =     10.03142  eV     1   --> A''            
     e(  7 -  7) =     10.70637  eV     1   --> A''            
     e(  8 -  8) =     13.45740  eV     1   --> A'             
     e(  9 -  9) =     15.02596  eV     1   --> A'             
     e( 10 - 10) =     16.69722  eV     1   --> A''            

 **************************************************************************

 **************************************************************************

                    xk=(  -0.81667,   0.40833,   0.00000  )

     Band symmetry, C_s (m)     point group:

     e(  1 -  1) =     -2.50077  eV     1   --> A'             
     e(  2 -  2) =     -0.46467  eV     1   --> A''            
     e(  3 -  3) =      2.19442  eV     1   --> A'             
     e(  4 -  4) =      3.12712  eV     1   --> A''            
     e(  5 -  5) =      9.68182  eV     1   --> A'             
     e(  6 -  6) =     10.00315  eV     1   --> A''            
     e(  7 -  7) =     10.67107  eV     1   --> A''            
     e(  8 -  8) =     13.72497  eV     1   --> A'             
     e(  9 -  9) =     14.84386  eV     1   --> A'             
     e( 10 - 10) =     16.55468  eV     1   --> A''            

 **************************************************************************

 **************************************************************************

                    xk=(  -0.80000,   0.40000,   0.00000  )

     Band symmetry, C_s (m)     point group:

     e(  1 -  1) =     -2.60872  eV     1   --> A'             
     e(  2 -  2) =     -0.36060  eV     1   --> A''            
     e(  3 -  3) =      2.22247  eV     1   --> A'             
     e(  4 -  4) =      3.20958  eV     1   --> A''            
     e(  5 -  5) =      9.60111  eV     1   --> A'             
     e(  6 -  6) =      9.97838  eV     1   --> A''            
     e(  7 -  7) =     10.63806  eV     1   --> A''            
     e(  8 -  8) =     13.99420  eV     1   --> A'             
     e(  9 -  9) =     14.66297  eV     1   --> A'             
     e( 10 - 10) =     16.40669  eV     1   --> A''            

 **************************************************************************

 **************************************************************************

                    xk=(  -0.78333,   0.39167,   0.00000  )

     Band symmetry, C_s (m)     point group:

     e(  1 -  1) =     -2.71728  eV     1   --> A'             
     e(  2 -  2) =     -0.25417  eV     1   --> A''            
     e(  3 -  3) =      2.25628  eV     1   --> A'             
     e(  4 -  4) =      3.29347  eV     1   --> A''            
     e(  5 -  5) =      9.52311  eV     1   --> A'             
     e(  6 -  6) =      9.95724  eV     1   --> A''            
     e(  7 -  7) =     10.60720  eV     1   --> A''            
     e(  8 -  8) =     14.26405  eV     1   --> A'             
     e(  9 -  9) =     14.48390  eV     1   --> A'             
     e( 10 - 10) =     16.25559  eV     1   --> A''            

 **************************************************************************

 **************************************************************************

                    xk=(  -0.76667,   0.38333,   0.00000  )

     Band symmetry, C_s (m)     point group:

     e(  1 -  1) =     -2.82613  eV     1   --> A'             
     e(  2 -  2) =     -0.14537  eV     1   --> A''            
     e(  3 -  3) =      2.29558  eV     1   --> A'             
     e(  4 -  4) =      3.37862  eV     1   --> A''            
     e(  5 -  5) =      9.44790  eV     1   --> A'             
     e(  6 -  6) =      9.93989  eV     1   --> A''            
     e(  7 -  7) =     10.57837  eV     1   --> A''            
     e(  8 -  8) =     14.30380  eV     1   --> A'             
     e(  9 -  9) =     14.53686  eV     1   --> A'             
     e( 10 - 10) =     16.10306  eV     1   --> A''            

 **************************************************************************

 **************************************************************************

                    xk=(  -0.75000,   0.37500,   0.00000  )

     Band symmetry, C_s (m)     point group:

     e(  1 -  1) =     -2.93498  eV     1   --> A'             
     e(  2 -  2) =     -0.03421  eV     1   --> A''            
     e(  3 -  3) =      2.34010  eV     1   --> A'             
     e(  4 -  4) =      3.46489  eV     1   --> A''            
     e(  5 -  5) =      9.37555  eV     1   --> A'             
     e(  6 -  6) =      9.92644  eV     1   --> A''            
     e(  7 -  7) =     10.55140  eV     1   --> A''            
     e(  8 -  8) =     14.12772  eV     1   --> A'             
     e(  9 -  9) =     14.80695  eV     1   --> A'             
     e( 10 - 10) =     15.95033  eV     1   --> A''            

 **************************************************************************

 **************************************************************************

                    xk=(  -0.73333,   0.36667,   0.00000  )

     Band symmetry, C_s (m)     point group:

     e(  1 -  1) =     -3.04357  eV     1   --> A'             
     e(  2 -  2) =      0.07932  eV     1   --> A''            
     e(  3 -  3) =      2.38958  eV     1   --> A'             
     e(  4 -  4) =      3.55211  eV     1   --> A''            
     e(  5 -  5) =      9.30612  eV     1   --> A'             
     e(  6 -  6) =      9.91706  eV     1   --> A''            
     e(  7 -  7) =     10.52614  eV     1   --> A''            
     e(  8 -  8) =     13.95283  eV     1   --> A'             
     e(  9 -  9) =     15.07630  eV     1   --> A'             
     e( 10 - 10) =     15.79832  eV     1   --> A''            

 **************************************************************************

 **************************************************************************

                    xk=(  -0.71667,   0.35833,   0.00000  )

     Band symmetry, C_s (m)     point group:

     e(  1 -  1) =     -3.15166  eV     1   --> A'             
     e(  2 -  2) =      0.19519  eV     1   --> A''            
     e(  3 -  3) =      2.44378  eV     1   --> A'             
     e(  4 -  4) =      3.64011  eV     1   --> A''            
     e(  5 -  5) =      9.23964  eV     1   --> A'             
     e(  6 -  6) =      9.91184  eV     1   --> A''            
     e(  7 -  7) =     10.50243  eV     1   --> A''            
     e(  8 -  8) =     13.77962  eV     1   --> A'             
     e(  9 -  9) =     15.34336  eV     1   --> A'             
     e( 10 - 10) =     15.64775  eV     1   --> A''            

 **************************************************************************

 **************************************************************************

                    xk=(  -0.70000,   0.35000,  -0.00000  )

     Band symmetry, C_s (m)     point group:

     e(  1 -  1) =     -3.25901  eV     1   --> A'             
     e(  2 -  2) =      0.31342  eV     1   --> A''            
     e(  3 -  3) =      2.50248  eV     1   --> A'             
     e(  4 -  4) =      3.72873  eV     1   --> A''            
     e(  5 -  5) =      9.17616  eV     1   --> A'             
     e(  6 -  6) =      9.91090  eV     1   --> A''            
     e(  7 -  7) =     10.48011  eV     1   --> A''            
     e(  8 -  8) =     13.60820  eV     1   --> A'             
     e(  9 -  9) =     15.49923  eV     1   --> A''            
     e( 10 - 10) =     15.60664  eV     1   --> A'             

 **************************************************************************

 **************************************************************************

                    xk=(  -0.68333,   0.34167,   0.00000  )

     Band symmetry, C_s (m)     point group:

     e(  1 -  1) =     -3.36543  eV     1   --> A'             
     e(  2 -  2) =      0.43398  eV     1   --> A''            
     e(  3 -  3) =      2.56546  eV     1   --> A'             
     e(  4 -  4) =      3.81777  eV     1   --> A''            
     e(  5 -  5) =      9.11568  eV     1   --> A'             
     e(  6 -  6) =      9.91433  eV     1   --> A''            
     e(  7 -  7) =     10.45904  eV     1   --> A''            
     e(  8 -  8) =     13.43863  eV     1   --> A'             
     e(  9 -  9) =     15.35323  eV     1   --> A''            
     e( 10 - 10) =     15.86427  eV     1   --> A'             

 **************************************************************************

 **************************************************************************

                    xk=(  -0.66667,   0.33333,   0.00000  )

     Band symmetry, C_s (m)     point group:

     e(  1 -  1) =     -3.47072  eV     1   --> A'             
     e(  2 -  2) =      0.55688  eV     1   --> A''            
     e(  3 -  3) =      2.63252  eV     1   --> A'             
     e(  4 -  4) =      3.90707  eV     1   --> A''            
     e(  5 -  5) =      9.05824  eV     1   --> A'             
     e(  6 -  6) =      9.92215  eV     1   --> A''            
     e(  7 -  7) =     10.43908  eV     1   --> A''            
     e(  8 -  8) =     13.27097  eV     1   --> A'             
     e(  9 -  9) =     15.21016  eV     1   --> A''            
     e( 10 - 10) =     16.11384  eV     1   --> A'             

 **************************************************************************

 **************************************************************************

                    xk=(  -0.65000,   0.32500,   0.00000  )

     Band symmetry, C_s (m)     point group:

     e(  1 -  1) =     -3.57472  eV     1   --> A'             
     e(  2 -  2) =      0.68210  eV     1   --> A''            
     e(  3 -  3) =      2.70347  eV     1   --> A'             
     e(  4 -  4) =      3.99643  eV     1   --> A''            
     e(  5 -  5) =      9.00384  eV     1   --> A'             
     e(  6 -  6) =      9.93438  eV     1   --> A''            
     e(  7 -  7) =     10.42013  eV     1   --> A''            
     e(  8 -  8) =     13.10525  eV     1   --> A'             
     e(  9 -  9) =     15.07039  eV     1   --> A''            
     e( 10 - 10) =     16.35226  eV     1   --> A'             

 **************************************************************************

 **************************************************************************

                    xk=(  -0.63333,   0.31667,  -0.00000  )

     Band symmetry, C_s (m)     point group:

     e(  1 -  1) =     -3.67726  eV     1   --> A'             
     e(  2 -  2) =      0.80963  eV     1   --> A''            
     e(  3 -  3) =      2.77812  eV     1   --> A'             
     e(  4 -  4) =      4.08567  eV     1   --> A''            
     e(  5 -  5) =      8.95250  eV     1   --> A'             
     e(  6 -  6) =      9.95092  eV     1   --> A''            
     e(  7 -  7) =     10.40214  eV     1   --> A''            
     e(  8 -  8) =     12.94153  eV     1   --> A'             
     e(  9 -  9) =     14.93423  eV     1   --> A''            
     e( 10 - 10) =     16.57561  eV     1   --> A'             

 **************************************************************************

 **************************************************************************

                    xk=(  -0.61667,   0.30833,   0.00000  )

     Band symmetry, C_s (m)     point group:

     e(  1 -  1) =     -3.77820  eV     1   --> A'             
     e(  2 -  2) =      0.93947  eV     1   --> A''            
     e(  3 -  3) =      2.85631  eV     1   --> A'             
     e(  4 -  4) =      4.17461  eV     1   --> A''            
     e(  5 -  5) =      8.90422  eV     1   --> A'             
     e(  6 -  6) =      9.97153  eV     1   --> A''            
     e(  7 -  7) =     10.38518  eV     1   --> A''            
     e(  8 -  8) =     12.77981  eV     1   --> A'             
     e(  9 -  9) =     14.80195  eV     1   --> A''            
     e( 10 - 10) =     16.77905  eV     1   --> A'             

 **************************************************************************

 **************************************************************************

                    xk=(  -0.60000,   0.30000,   0.00000  )

     Band symmetry, C_s (m)     point group:

     e(  1 -  1) =     -3.87742  eV     1   --> A'             
     e(  2 -  2) =      1.07161  eV     1   --> A''            
     e(  3 -  3) =      2.93786  eV     1   --> A'             
     e(  4 -  4) =      4.26307  eV     1   --> A''            
     e(  5 -  5) =      8.85900  eV     1   --> A'             
     e(  6 -  6) =      9.99578  eV     1   --> A''            
     e(  7 -  7) =     10.36955  eV     1   --> A''            
     e(  8 -  8) =     12.62014  eV     1   --> A'             
     e(  9 -  9) =     14.67378  eV     1   --> A''            
     e( 10 - 10) =     16.95707  eV     1   --> A'             

 **************************************************************************

 **************************************************************************

                    xk=(  -0.58333,   0.29167,  -0.00000  )

     Band symmetry, C_s (m)     point group:

     e(  1 -  1) =     -3.97479  eV     1   --> A'             
     e(  2 -  2) =      1.20601  eV     1   --> A''            
     e(  3 -  3) =      3.02262  eV     1   --> A'             
     e(  4 -  4) =      4.35086  eV     1   --> A''            
     e(  5 -  5) =      8.81686  eV     1   --> A'             
     e(  6 -  6) =     10.02278  eV     1   --> A''            
     e(  7 -  7) =     10.35588  eV     1   --> A''            
     e(  8 -  8) =     12.46254  eV     1   --> A'             
     e(  9 -  9) =     14.54991  eV     1   --> A''            
     e( 10 - 10) =     17.10398  eV     1   --> A'             

 **************************************************************************

 **************************************************************************

                    xk=(  -0.56667,   0.28333,   0.00000  )

     Band symmetry, C_s (m)     point group:

     e(  1 -  1) =     -4.07022  eV     1   --> A'             
     e(  2 -  2) =      1.34268  eV     1   --> A''            
     e(  3 -  3) =      3.11042  eV     1   --> A'             
     e(  4 -  4) =      4.43782  eV     1   --> A''            
     e(  5 -  5) =      8.77777  eV     1   --> A'             
     e(  6 -  6) =     10.05094  eV     1   --> A''            
     e(  7 -  7) =     10.34556  eV     1   --> A''            
     e(  8 -  8) =     12.30702  eV     1   --> A'             
     e(  9 -  9) =     14.43050  eV     1   --> A''            
     e( 10 - 10) =     17.21509  eV     1   --> A'             

 **************************************************************************

 **************************************************************************

                    xk=(  -0.55000,   0.27500,   0.00000  )

     Band symmetry, C_s (m)     point group:

     e(  1 -  1) =     -4.16359  eV     1   --> A'             
     e(  2 -  2) =      1.48158  eV     1   --> A''            
     e(  3 -  3) =      3.20111  eV     1   --> A'             
     e(  4 -  4) =      4.52378  eV     1   --> A''            
     e(  5 -  5) =      8.74175  eV     1   --> A'             
     e(  6 -  6) =     10.07744  eV     1   --> A''            
     e(  7 -  7) =     10.34114  eV     1   --> A''            
     e(  8 -  8) =     12.15361  eV     1   --> A'             
     e(  9 -  9) =     14.31563  eV     1   --> A''            
     e( 10 - 10) =     17.26567  eV     1   --> A''            

 **************************************************************************

 **************************************************************************

                    xk=(  -0.53333,   0.26667,   0.00000  )

     Band symmetry, C_s (m)     point group:

     e(  1 -  1) =     -4.25481  eV     1   --> A'             
     e(  2 -  2) =      1.62271  eV     1   --> A''            
     e(  3 -  3) =      3.29452  eV     1   --> A'             
     e(  4 -  4) =      4.60858  eV     1   --> A''            
     e(  5 -  5) =      8.70878  eV     1   --> A'             
     e(  6 -  6) =     10.09791  eV     1   --> A''            
     e(  7 -  7) =     10.34667  eV     1   --> A''            
     e(  8 -  8) =     12.00233  eV     1   --> A'             
     e(  9 -  9) =     14.20531  eV     1   --> A''            
     e( 10 - 10) =     16.99213  eV     1   --> A''            

 **************************************************************************

 **************************************************************************

                    xk=(  -0.51667,   0.25833,  -0.00000  )

     Band symmetry, C_s (m)     point group:

     e(  1 -  1) =     -4.34382  eV     1   --> A'             
     e(  2 -  2) =      1.76601  eV     1   --> A''            
     e(  3 -  3) =      3.39052  eV     1   --> A'             
     e(  4 -  4) =      4.69208  eV     1   --> A''            
     e(  5 -  5) =      8.67884  eV     1   --> A'             
     e(  6 -  6) =     10.10775  eV     1   --> A''            
     e(  7 -  7) =     10.36645  eV     1   --> A''            
     e(  8 -  8) =     11.85320  eV     1   --> A'             
     e(  9 -  9) =     14.09948  eV     1   --> A''            
     e( 10 - 10) =     16.72287  eV     1   --> A''            

 **************************************************************************

 **************************************************************************

                    xk=(  -0.50000,   0.25000,   0.00000  )

     Band symmetry, C_s (m)     point group:

     e(  1 -  1) =     -4.43052  eV     1   --> A'             
     e(  2 -  2) =      1.91148  eV     1   --> A''            
     e(  3 -  3) =      3.48893  eV     1   --> A'             
     e(  4 -  4) =      4.77415  eV     1   --> A''            
     e(  5 -  5) =      8.65193  eV     1   --> A'             
     e(  6 -  6) =     10.10509  eV     1   --> A''            
     e(  7 -  7) =     10.40197  eV     1   --> A''            
     e(  8 -  8) =     11.70623  eV     1   --> A'             
     e(  9 -  9) =     13.99795  eV     1   --> A''            
     e( 10 - 10) =     16.45860  eV     1   --> A''            

 **************************************************************************

 **************************************************************************

                    xk=(  -0.48333,   0.24167,   0.00000  )

     Band symmetry, C_s (m)     point group:

     e(  1 -  1) =     -4.51486  eV     1   --> A'             
     e(  2 -  2) =      2.05908  eV     1   --> A''            
     e(  3 -  3) =      3.58960  eV     1   --> A'             
     e(  4 -  4) =      4.85466  eV     1   --> A''            
     e(  5 -  5) =      8.62802  eV     1   --> A'             
     e(  6 -  6) =     10.09163  eV     1   --> A''            
     e(  7 -  7) =     10.45112  eV     1   --> A''            
     e(  8 -  8) =     11.56144  eV     1   --> A'             
     e(  9 -  9) =     13.90040  eV     1   --> A''            
     e( 10 - 10) =     16.20016  eV     1   --> A''            

 **************************************************************************

 **************************************************************************

                    xk=(  -0.46667,   0.23333,   0.00000  )

     Band symmetry, C_s (m)     point group:

     e(  1 -  1) =     -4.59677  eV     1   --> A'             
     e(  2 -  2) =      2.20878  eV     1   --> A''            
     e(  3 -  3) =      3.69237  eV     1   --> A'             
     e(  4 -  4) =      4.93351  eV     1   --> A''            
     e(  5 -  5) =      8.60709  eV     1   --> A'             
     e(  6 -  6) =     10.07008  eV     1   --> A''            
     e(  7 -  7) =     10.51071  eV     1   --> A''            
     e(  8 -  8) =     11.41886  eV     1   --> A'             
     e(  9 -  9) =     13.80634  eV     1   --> A''            
     e( 10 - 10) =     15.94858  eV     1   --> A''            

 **************************************************************************

 **************************************************************************

                    xk=(  -0.45000,   0.22500,   0.00000  )

     Band symmetry, C_s (m)     point group:

     e(  1 -  1) =     -4.67619  eV     1   --> A'             
     e(  2 -  2) =      2.36051  eV     1   --> A''            
     e(  3 -  3) =      3.79707  eV     1   --> A'             
     e(  4 -  4) =      5.01060  eV     1   --> A''            
     e(  5 -  5) =      8.58910  eV     1   --> A'             
     e(  6 -  6) =     10.04256  eV     1   --> A''            
     e(  7 -  7) =     10.57812  eV     1   --> A''            
     e(  8 -  8) =     11.27849  eV     1   --> A'             
     e(  9 -  9) =     13.71507  eV     1   --> A''            
     e( 10 - 10) =     15.70508  eV     1   --> A''            

 **************************************************************************

 **************************************************************************

                    xk=(  -0.43333,   0.21667,   0.00000  )

     Band symmetry, C_s (m)     point group:

     e(  1 -  1) =     -4.75306  eV     1   --> A'             
     e(  2 -  2) =      2.51423  eV     1   --> A''            
     e(  3 -  3) =      3.90352  eV     1   --> A'             
     e(  4 -  4) =      5.08586  eV     1   --> A''            
     e(  5 -  5) =      8.57403  eV     1   --> A'             
     e(  6 -  6) =     10.01035  eV     1   --> A''            
     e(  7 -  7) =     10.65138  eV     1   --> A''            
     e(  8 -  8) =     11.14037  eV     1   --> A'             
     e(  9 -  9) =     13.62567  eV     1   --> A''            
     e( 10 - 10) =     15.47121  eV     1   --> A''            

 **************************************************************************

 **************************************************************************

                    xk=(  -0.41667,   0.20833,   0.00000  )

     Band symmetry, C_s (m)     point group:

     e(  1 -  1) =     -4.82735  eV     1   --> A'             
     e(  2 -  2) =      2.66989  eV     1   --> A''            
     e(  3 -  3) =      4.01154  eV     1   --> A'             
     e(  4 -  4) =      5.15921  eV     1   --> A''            
     e(  5 -  5) =      8.56183  eV     1   --> A'             
     e(  6 -  6) =      9.97424  eV     1   --> A''            
     e(  7 -  7) =     10.72894  eV     1   --> A''            
     e(  8 -  8) =     11.00450  eV     1   --> A'             
     e(  9 -  9) =     13.53701  eV     1   --> A''            
     e( 10 - 10) =     15.24880  eV     1   --> A''            

 **************************************************************************

 **************************************************************************

                    xk=(  -0.40000,   0.20000,   0.00000  )

     Band symmetry, C_s (m)     point group:

     e(  1 -  1) =     -4.89901  eV     1   --> A'             
     e(  2 -  2) =      2.82740  eV     1   --> A''            
     e(  3 -  3) =      4.12094  eV     1   --> A'             
     e(  4 -  4) =      5.23061  eV     1   --> A''            
     e(  5 -  5) =      8.55244  eV     1   --> A'             
     e(  6 -  6) =      9.93474  eV     1   --> A''            
     e(  7 -  7) =     10.80926  eV     1   --> A''            
     e(  8 -  8) =     10.87093  eV     1   --> A'             
     e(  9 -  9) =     13.44778  eV     1   --> A''            
     e( 10 - 10) =     15.04005  eV     1   --> A''            

 **************************************************************************

 **************************************************************************

                    xk=(  -0.38333,   0.19167,   0.00000  )

     Band symmetry, C_s (m)     point group:

     e(  1 -  1) =     -4.96799  eV     1   --> A'             
     e(  2 -  2) =      2.98671  eV     1   --> A''            
     e(  3 -  3) =      4.23150  eV     1   --> A'             
     e(  4 -  4) =      5.30000  eV     1   --> A''            
     e(  5 -  5) =      8.54581  eV     1   --> A'             
     e(  6 -  6) =      9.89224  eV     1   --> A''            
     e(  7 -  7) =     10.73968  eV     1   --> A'             
     e(  8 -  8) =     10.89064  eV     1   --> A''            
     e(  9 -  9) =     13.35675  eV     1   --> A''            
     e( 10 - 10) =     14.84738  eV     1   --> A''            

 **************************************************************************

 **************************************************************************

                    xk=(  -0.36667,   0.18333,   0.00000  )

     Band symmetry, C_s (m)     point group:

     e(  1 -  1) =     -5.03426  eV     1   --> A'             
     e(  2 -  2) =      3.14771  eV     1   --> A''            
     e(  3 -  3) =      4.34302  eV     1   --> A'             
     e(  4 -  4) =      5.36735  eV     1   --> A''            
     e(  5 -  5) =      8.54187  eV     1   --> A'             
     e(  6 -  6) =      9.84705  eV     1   --> A''            
     e(  7 -  7) =     10.61080  eV     1   --> A'             
     e(  8 -  8) =     10.97093  eV     1   --> A''            
     e(  9 -  9) =     13.26308  eV     1   --> A''            
     e( 10 - 10) =     14.67324  eV     1   --> A''            

 **************************************************************************

 **************************************************************************

                    xk=(  -0.35000,   0.17500,   0.00000  )

     Band symmetry, C_s (m)     point group:

     e(  1 -  1) =     -5.09779  eV     1   --> A'             
     e(  2 -  2) =      3.31029  eV     1   --> A''            
     e(  3 -  3) =      4.45526  eV     1   --> A'             
     e(  4 -  4) =      5.43263  eV     1   --> A''            
     e(  5 -  5) =      8.54054  eV     1   --> A'             
     e(  6 -  6) =      9.79948  eV     1   --> A''            
     e(  7 -  7) =     10.48431  eV     1   --> A'             
     e(  8 -  8) =     11.04730  eV     1   --> A''            
     e(  9 -  9) =     13.16703  eV     1   --> A''            
     e( 10 - 10) =     14.51968  eV     1   --> A''            

 **************************************************************************

 **************************************************************************

                    xk=(  -0.33333,   0.16667,   0.00000  )

     Band symmetry, C_s (m)     point group:

     e(  1 -  1) =     -5.15854  eV     1   --> A'             
     e(  2 -  2) =      3.47433  eV     1   --> A''            
     e(  3 -  3) =      4.56797  eV     1   --> A'             
     e(  4 -  4) =      5.49580  eV     1   --> A''            
     e(  5 -  5) =      8.54171  eV     1   --> A'             
     e(  6 -  6) =      9.74982  eV     1   --> A''            
     e(  7 -  7) =     10.36028  eV     1   --> A'             
     e(  8 -  8) =     11.11591  eV     1   --> A''            
     e(  9 -  9) =     13.07071  eV     1   --> A''            
     e( 10 - 10) =     14.38789  eV     1   --> A''            

 **************************************************************************

 **************************************************************************

                    xk=(  -0.31667,   0.15833,   0.00000  )

     Band symmetry, C_s (m)     point group:

     e(  1 -  1) =     -5.21649  eV     1   --> A'             
     e(  2 -  2) =      3.63968  eV     1   --> A''            
     e(  3 -  3) =      4.68087  eV     1   --> A'             
     e(  4 -  4) =      5.55684  eV     1   --> A''            
     e(  5 -  5) =      8.54529  eV     1   --> A'             
     e(  6 -  6) =      9.69837  eV     1   --> A''            
     e(  7 -  7) =     10.23878  eV     1   --> A'             
     e(  8 -  8) =     11.17158  eV     1   --> A''            
     e(  9 -  9) =     12.97871  eV     1   --> A''            
     e( 10 - 10) =     14.27785  eV     1   --> A''            

 **************************************************************************

 **************************************************************************

                    xk=(  -0.30000,   0.15000,   0.00000  )

     Band symmetry, C_s (m)     point group:

     e(  1 -  1) =     -5.27160  eV     1   --> A'             
     e(  2 -  2) =      3.80617  eV     1   --> A''            
     e(  3 -  3) =      4.79368  eV     1   --> A'             
     e(  4 -  4) =      5.61572  eV     1   --> A''            
     e(  5 -  5) =      8.55113  eV     1   --> A'             
     e(  6 -  6) =      9.64545  eV     1   --> A''            
     e(  7 -  7) =     10.11989  eV     1   --> A'             
     e(  8 -  8) =     11.20778  eV     1   --> A''            
     e(  9 -  9) =     12.89827  eV     1   --> A''            
     e( 10 - 10) =     14.18827  eV     1   --> A''            

 **************************************************************************

 **************************************************************************

                    xk=(  -0.28333,   0.14167,   0.00000  )

     Band symmetry, C_s (m)     point group:

     e(  1 -  1) =     -5.32385  eV     1   --> A'             
     e(  2 -  2) =      3.97358  eV     1   --> A''            
     e(  3 -  3) =      4.90607  eV     1   --> A'             
     e(  4 -  4) =      5.67239  eV     1   --> A''            
     e(  5 -  5) =      8.55910  eV     1   --> A'             
     e(  6 -  6) =      9.59137  eV     1   --> A''            
     e(  7 -  7) =     10.00370  eV     1   --> A'             
     e(  8 -  8) =     11.21726  eV     1   --> A''            
     e(  9 -  9) =     12.83816  eV     1   --> A''            
     e( 10 - 10) =     14.11697  eV     1   --> A''            

 **************************************************************************

 **************************************************************************

                    xk=(  -0.26667,   0.13333,   0.00000  )

     Band symmetry, C_s (m)     point group:

     e(  1 -  1) =     -5.37322  eV     1   --> A'             
     e(  2 -  2) =      4.14167  eV     1   --> A''            
     e(  3 -  3) =      5.01769  eV     1   --> A'             
     e(  4 -  4) =      5.72682  eV     1   --> A''            
     e(  5 -  5) =      8.56902  eV     1   --> A'             
     e(  6 -  6) =      9.53643  eV     1   --> A''            
     e(  7 -  7) =      9.89034  eV     1   --> A'             
     e(  8 -  8) =     11.19398  eV     1   --> A''            
     e(  9 -  9) =     12.80637  eV     1   --> A''            
     e( 10 - 10) =     14.06135  eV     1   --> A''            

 **************************************************************************

 **************************************************************************

                    xk=(  -0.25000,   0.12500,   0.00000  )

     Band symmetry, C_s (m)     point group:

     e(  1 -  1) =     -5.41971  eV     1   --> A'             
     e(  2 -  2) =      4.31012  eV     1   --> A''            
     e(  3 -  3) =      5.12815  eV     1   --> A'             
     e(  4 -  4) =      5.77893  eV     1   --> A''            
     e(  5 -  5) =      8.58070  eV     1   --> A'             
     e(  6 -  6) =      9.48094  eV     1   --> A''            
     e(  7 -  7) =      9.77995  eV     1   --> A'             
     e(  8 -  8) =     11.13573  eV     1   --> A''            
     e(  9 -  9) =     12.80711  eV     1   --> A''            
     e( 10 - 10) =     14.01876  eV     1   --> A''            

 **************************************************************************

 **************************************************************************

                    xk=(  -0.23333,   0.11667,   0.00000  )

     Band symmetry, C_s (m)     point group:

     e(  1 -  1) =     -5.46327  eV     1   --> A'             
     e(  2 -  2) =      4.47859  eV     1   --> A''            
     e(  3 -  3) =      5.23703  eV     1   --> A'             
     e(  4 -  4) =      5.82867  eV     1   --> A''            
     e(  5 -  5) =      8.59391  eV     1   --> A'             
     e(  6 -  6) =      9.42517  eV     1   --> A''            
     e(  7 -  7) =      9.67274  eV     1   --> A'             
     e(  8 -  8) =     11.04528  eV     1   --> A''            
     e(  9 -  9) =     12.83937  eV     1   --> A''            
     e( 10 - 10) =     13.98683  eV     1   --> A''            

 **************************************************************************

 **************************************************************************

                    xk=(  -0.21667,   0.10833,   0.00000  )

     Band symmetry, C_s (m)     point group:

     e(  1 -  1) =     -5.50389  eV     1   --> A'             
     e(  2 -  2) =      4.64661  eV     1   --> A''            
     e(  3 -  3) =      5.34384  eV     1   --> A'             
     e(  4 -  4) =      5.87595  eV     1   --> A''            
     e(  5 -  5) =      8.60843  eV     1   --> A'             
     e(  6 -  6) =      9.36935  eV     1   --> A''            
     e(  7 -  7) =      9.56893  eV     1   --> A'             
     e(  8 -  8) =     10.92902  eV     1   --> A''            
     e(  9 -  9) =     12.89825  eV     1   --> A''            
     e( 10 - 10) =     13.96347  eV     1   --> A''            

 **************************************************************************

 **************************************************************************

                    xk=(  -0.20000,   0.10000,   0.00000  )

     Band symmetry, C_s (m)     point group:

     e(  1 -  1) =     -5.54157  eV     1   --> A'             
     e(  2 -  2) =      4.81363  eV     1   --> A''            
     e(  3 -  3) =      5.44805  eV     1   --> A'             
     e(  4 -  4) =      5.92065  eV     1   --> A''            
     e(  5 -  5) =      8.62396  eV     1   --> A'             
     e(  6 -  6) =      9.31366  eV     1   --> A''            
     e(  7 -  7) =      9.46881  eV     1   --> A'             
     e(  8 -  8) =     10.79452  eV     1   --> A''            
     e(  9 -  9) =     12.97737  eV     1   --> A''            
     e( 10 - 10) =     13.94694  eV     1   --> A''            

 **************************************************************************

 **************************************************************************

                    xk=(  -0.18333,   0.09167,   0.00000  )

     Band symmetry, C_s (m)     point group:

     e(  1 -  1) =     -5.57628  eV     1   --> A'             
     e(  2 -  2) =      4.97896  eV     1   --> A''            
     e(  3 -  3) =      5.54906  eV     1   --> A'             
     e(  4 -  4) =      5.96267  eV     1   --> A''            
     e(  5 -  5) =      8.64021  eV     1   --> A'             
     e(  6 -  6) =      9.25824  eV     1   --> A''            
     e(  7 -  7) =      9.37271  eV     1   --> A'             
     e(  8 -  8) =     10.64882  eV     1   --> A''            
     e(  9 -  9) =     13.07072  eV     1   --> A''            
     e( 10 - 10) =     13.93579  eV     1   --> A''            

 **************************************************************************

 **************************************************************************

                    xk=(  -0.16667,   0.08333,   0.00000  )

     Band symmetry, C_s (m)     point group:

     e(  1 -  1) =     -5.60801  eV     1   --> A'             
     e(  2 -  2) =      5.14174  eV     1   --> A''            
     e(  3 -  3) =      5.64621  eV     1   --> A'             
     e(  4 -  4) =      6.00187  eV     1   --> A''            
     e(  5 -  5) =      8.65685  eV     1   --> A'             
     e(  6 -  6) =      9.20313  eV     1   --> A''            
     e(  7 -  7) =      9.28108  eV     1   --> A'             
     e(  8 -  8) =     10.49793  eV     1   --> A''            
     e(  9 -  9) =     13.17315  eV     1   --> A''            
     e( 10 - 10) =     13.92882  eV     1   --> A''            

 **************************************************************************

 **************************************************************************

                    xk=(  -0.15000,   0.07500,   0.00000  )

     Band symmetry, C_s (m)     point group:

     e(  1 -  1) =     -5.63675  eV     1   --> A'             
     e(  2 -  2) =      5.30088  eV     1   --> A''            
     e(  3 -  3) =      5.73873  eV     1   --> A'             
     e(  4 -  4) =      6.03809  eV     1   --> A''            
     e(  5 -  5) =      8.67354  eV     1   --> A'             
     e(  6 -  6) =      9.14831  eV     1   --> A''            
     e(  7 -  7) =      9.19443  eV     1   --> A'             
     e(  8 -  8) =     10.34688  eV     1   --> A''            
     e(  9 -  9) =     13.28045  eV     1   --> A''            
     e( 10 - 10) =     13.92502  eV     1   --> A''            

 **************************************************************************

 **************************************************************************

                    xk=(  -0.13333,   0.06667,   0.00000  )

     Band symmetry, C_s (m)     point group:

     e(  1 -  1) =     -5.66250  eV     1   --> A'             
     e(  2 -  2) =      5.45502  eV     1   --> A''            
     e(  3 -  3) =      5.82578  eV     1   --> A'             
     e(  4 -  4) =      6.07117  eV     1   --> A''            
     e(  5 -  5) =      8.68989  eV     1   --> A'             
     e(  6 -  6) =      9.09368  eV     1   --> A''            
     e(  7 -  7) =      9.11335  eV     1   --> A'             
     e(  8 -  8) =     10.20007  eV     1   --> A''            
     e(  9 -  9) =     13.38899  eV     1   --> A''            
     e( 10 - 10) =     13.92356  eV     1   --> A''            

 **************************************************************************

 **************************************************************************

                    xk=(  -0.11667,   0.05833,   0.00000  )

     Band symmetry, C_s (m)     point group:

     e(  1 -  1) =     -5.68524  eV     1   --> A'             
     e(  2 -  2) =      5.60241  eV     1   --> A''            
     e(  3 -  3) =      5.90642  eV     1   --> A'             
     e(  4 -  4) =      6.10093  eV     1   --> A''            
     e(  5 -  5) =      8.70553  eV     1   --> A'             
     e(  6 -  6) =      9.03856  eV     1   --> A'             
     e(  7 -  7) =      9.03919  eV     1   --> A''            
     e(  8 -  8) =     10.06150  eV     1   --> A''            
     e(  9 -  9) =     13.49552  eV     1   --> A''            
     e( 10 - 10) =     13.92373  eV     1   --> A''            

 **************************************************************************

 **************************************************************************

                    xk=(  -0.10000,   0.05000,   0.00000  )

     Band symmetry, C_s (m)     point group:

     e(  1 -  1) =     -5.70495  eV     1   --> A'             
     e(  2 -  2) =      5.74087  eV     1   --> A''            
     e(  3 -  3) =      5.97964  eV     1   --> A'             
     e(  4 -  4) =      6.12720  eV     1   --> A''            
     e(  5 -  5) =      8.72007  eV     1   --> A'             
     e(  6 -  6) =      8.97090  eV     1   --> A'             
     e(  7 -  7) =      8.98500  eV     1   --> A''            
     e(  8 -  8) =      9.93490  eV     1   --> A''            
     e(  9 -  9) =     13.59696  eV     1   --> A''            
     e( 10 - 10) =     13.92495  eV     1   --> A''            

 **************************************************************************

 **************************************************************************

                    xk=(  -0.08333,   0.04167,   0.00000  )

     Band symmetry, C_s (m)     point group:

     e(  1 -  1) =     -5.72164  eV     1   --> A'             
     e(  2 -  2) =      5.86770  eV     1   --> A''            
     e(  3 -  3) =      6.04432  eV     1   --> A'             
     e(  4 -  4) =      6.14979  eV     1   --> A''            
     e(  5 -  5) =      8.73315  eV     1   --> A'             
     e(  6 -  6) =      8.91125  eV     1   --> A'             
     e(  7 -  7) =      8.93175  eV     1   --> A''            
     e(  8 -  8) =      9.82362  eV     1   --> A''            
     e(  9 -  9) =     13.69024  eV     1   --> A''            
     e( 10 - 10) =     13.92674  eV     1   --> A''            

 **************************************************************************

 **************************************************************************

                    xk=(  -0.06667,   0.03333,   0.00000  )

     Band symmetry, C_s (m)     point group:

     e(  1 -  1) =     -5.73531  eV     1   --> A'             
     e(  2 -  2) =      5.97961  eV     1   --> A''            
     e(  3 -  3) =      6.09934  eV     1   --> A'             
     e(  4 -  4) =      6.16855  eV     1   --> A''            
     e(  5 -  5) =      8.74440  eV     1   --> A'             
     e(  6 -  6) =      8.86060  eV     1   --> A'             
     e(  7 -  7) =      8.88096  eV     1   --> A''            
     e(  8 -  8) =      9.73042  eV     1   --> A''            
     e(  9 -  9) =     13.77232  eV     1   --> A''            
     e( 10 - 10) =     13.92871  eV     1   --> A''            

 **************************************************************************

 **************************************************************************

                    xk=(  -0.05000,   0.02500,   0.00000  )

     Band symmetry, C_s (m)     point group:

     e(  1 -  1) =     -5.74594  eV     1   --> A'             
     e(  2 -  2) =      6.07283  eV     1   --> A''            
     e(  3 -  3) =      6.14359  eV     1   --> A'             
     e(  4 -  4) =      6.18332  eV     1   --> A''            
     e(  5 -  5) =      8.75351  eV     1   --> A'             
     e(  6 -  6) =      8.81991  eV     1   --> A'             
     e(  7 -  7) =      8.83530  eV     1   --> A''            
     e(  8 -  8) =      9.65718  eV     1   --> A''            
     e(  9 -  9) =     13.84019  eV     1   --> A''            
     e( 10 - 10) =     13.93055  eV     1   --> A''            

 **************************************************************************

 **************************************************************************

                    xk=(  -0.03333,   0.01667,   0.00000  )

     Band symmetry, C_s (m)     point group:

     e(  1 -  1) =     -5.75354  eV     1   --> A'             
     e(  2 -  2) =      6.14336  eV     1   --> A''            
     e(  3 -  3) =      6.17603  eV     1   --> A'             
     e(  4 -  4) =      6.19396  eV     1   --> A''            
     e(  5 -  5) =      8.76022  eV     1   --> A'             
     e(  6 -  6) =      8.79008  eV     1   --> A'             
     e(  7 -  7) =      8.79840  eV     1   --> A''            
     e(  8 -  8) =      9.60481  eV     1   --> A''            
     e(  9 -  9) =     13.89105  eV     1   --> A''            
     e( 10 - 10) =     13.93203  eV     1   --> A''            

 **************************************************************************

 **************************************************************************

                    xk=(  -0.01667,   0.00833,   0.00000  )

     Band symmetry, C_s (m)     point group:

     e(  1 -  1) =     -5.75809  eV     1   --> A'             
     e(  2 -  2) =      6.18750  eV     1   --> A''            
     e(  3 -  3) =      6.19587  eV     1   --> A'             
     e(  4 -  4) =      6.20039  eV     1   --> A''            
     e(  5 -  5) =      8.76434  eV     1   --> A'             
     e(  6 -  6) =      8.77185  eV     1   --> A'             
     e(  7 -  7) =      8.77418  eV     1   --> A''            
     e(  8 -  8) =      9.57350  eV     1   --> A''            
     e(  9 -  9) =     13.92261  eV     1   --> A''            
     e( 10 - 10) =     13.93298  eV     1   --> A''            

 **************************************************************************

 **************************************************************************

                    xk=(   0.00000,   0.00000,   0.00000  )

     point group O_h (m-3m) 
     there are 10 classes
     the character table:

       E     8C3   3C2   6C4   6C2'  i     8S6   3s_h  6S4   6s_d 
A_1g   1.00  1.00  1.00  1.00  1.00  1.00  1.00  1.00  1.00  1.00
A_2g   1.00  1.00  1.00 -1.00 -1.00  1.00  1.00  1.00 -1.00 -1.00
E_g    2.00 -1.00  2.00  0.00  0.00  2.00 -1.00  2.00  0.00  0.00
T_1g   3.00  0.00 -1.00  1.00 -1.00  3.00  0.00 -1.00  1.00 -1.00
T_2g   3.00  0.00 -1.00 -1.00  1.00  3.00  0.00 -1.00 -1.00  1.00
A_1u   1.00  1.00  1.00  1.00  1.00 -1.00 -1.00 -1.00 -1.00 -1.00
A_2u   1.00  1.00  1.00 -1.00 -1.00 -1.00 -1.00 -1.00  1.00  1.00
E_u    2.00 -1.00  2.00  0.00  0.00 -2.00  1.00 -2.00  0.00  0.00
T_1u   3.00  0.00 -1.00  1.00 -1.00 -3.00  0.00  1.00 -1.00  1.00
T_2u   3.00  0.00 -1.00 -1.00  1.00 -3.00  0.00  1.00  1.00 -1.00

     the symmetry operations in each class and the name of the first element:

     E        1
                                                                 
     8C3     17   19   20   18   24   21   22   23
                                                                 
     3C2      2    4    3
                                                                 
     6C4      7    8   15   16   12   11
                                                                 
     6C2'     5    6   14   13   10    9
                                                                 
     i       25
                                                                 
     8S6     41   43   44   42   48   45   46   47
                                                                 
     3s_h    26   28   27
                                                                 
     6S4     31   32   39   40   36   35
                                                                 
     6s_d    29   30   38   37   34   33
                                                                 

     Band symmetry, O_h (m-3m)  point group:

     e(  1 -  1) =     -5.75960  eV     1   --> A_1g G_1   G_1+
     e(  2 -  4) =      6.20254  eV     3   --> T_2g G_25' G_5+
     e(  5 -  7) =      8.76572  eV     3   --> T_1u G_15  G_4-
     e(  8 -  8) =      9.56310  eV     1   --> A_2u G_2'  G_2-
     e(  9 - 10) =     13.93331  eV     2   --> E_u  G_12' G_3-

 **************************************************************************

 **************************************************************************

                    xk=(  -0.01667,   0.00000,   0.00000  )

     point group C_4v (4mm) 
     there are  5 classes
     the character table:

       E     2C4   C2    2s_v  2s_d 
A_1    1.00  1.00  1.00  1.00  1.00
A_2    1.00  1.00  1.00 -1.00 -1.00
B_1    1.00 -1.00  1.00  1.00 -1.00
B_2    1.00 -1.00  1.00 -1.00  1.00
E      2.00  0.00 -2.00  0.00  0.00

     the symmetry operations in each class and the name of the first element:

     E        1
                                                                 
     2C4      3    4
                                                                 
     C2       2
                                                                 
     2s_v     5    6
                                                                 
     2s_d     7    8
                                                                 

     Band symmetry, C_4v (4mm)  point group:

     e(  1 -  1) =     -5.75839  eV     1   --> A_1  G_1 D_1   
     e(  2 -  2) =      6.19409  eV     1   --> B_2  G_4 D_2'  
     e(  3 -  4) =      6.19720  eV     2   --> E    G_5 D_5   
     e(  5 -  5) =      8.76268  eV     1   --> A_1  G_1 D_1   
     e(  6 -  7) =      8.77256  eV     2   --> E    G_5 D_5   
     e(  8 -  8) =      9.57139  eV     1   --> B_2  G_4 D_2'  
     e(  9 -  9) =     13.92313  eV     1   --> B_2  G_4 D_2'  
     e( 10 - 10) =     13.93466  eV     1   --> A_2  G_2 D_1'  

 **************************************************************************

 **************************************************************************

                    xk=(  -0.03333,   0.00000,   0.00000  )

     Band symmetry, C_4v (4mm)  point group:

     e(  1 -  1) =     -5.75475  eV     1   --> A_1  G_1 D_1   
     e(  2 -  2) =      6.16900  eV     1   --> B_2  G_4 D_2'  
     e(  3 -  4) =      6.18137  eV     2   --> E    G_5 D_5   
     e(  5 -  5) =      8.75360  eV     1   --> A_1  G_1 D_1   
     e(  6 -  7) =      8.79288  eV     2   --> E    G_5 D_5   
     e(  8 -  8) =      9.59595  eV     1   --> B_2  G_4 D_2'  
     e(  9 -  9) =     13.89302  eV     1   --> B_2  G_4 D_2'  
     e( 10 - 10) =     13.93870  eV     1   --> A_2  G_2 D_1'  

 **************************************************************************

 **************************************************************************

                    xk=(  -0.05000,   0.00000,   0.00000  )

     Band symmetry, C_4v (4mm)  point group:

     e(  1 -  1) =     -5.74868  eV     1   --> A_1  G_1 D_1   
     e(  2 -  2) =      6.12803  eV     1   --> B_2  G_4 D_2'  
     e(  3 -  4) =      6.15555  eV     2   --> E    G_5 D_5   
     e(  5 -  5) =      8.73861  eV     1   --> A_1  G_1 D_1   
     e(  6 -  7) =      8.82620  eV     2   --> E    G_5 D_5   
     e(  8 -  8) =      9.63594  eV     1   --> B_2  G_4 D_2'  
     e(  9 -  9) =     13.84416  eV     1   --> B_2  G_4 D_2'  
     e( 10 - 10) =     13.94543  eV     1   --> A_2  G_2 D_1'  

 **************************************************************************

 **************************************************************************

                    xk=(  -0.06667,   0.00000,   0.00000  )

     Band symmetry, C_4v (4mm)  point group:

     e(  1 -  1) =     -5.74017  eV     1   --> A_1  G_1 D_1   
     e(  2 -  2) =      6.07231  eV     1   --> B_2  G_4 D_2'  
     e(  3 -  4) =      6.12050  eV     2   --> E    G_5 D_5   
     e(  5 -  5) =      8.71791  eV     1   --> A_1  G_1 D_1   
     e(  6 -  7) =      8.87172  eV     2   --> E    G_5 D_5   
     e(  8 -  8) =      9.69002  eV     1   --> B_2  G_4 D_2'  
     e(  9 -  9) =     13.77837  eV     1   --> B_2  G_4 D_2'  
     e( 10 - 10) =     13.95486  eV     1   --> A_2  G_2 D_1'  

 **************************************************************************

 **************************************************************************

                    xk=(  -0.08333,   0.00000,   0.00000  )

     Band symmetry, C_4v (4mm)  point group:

     e(  1 -  1) =     -5.72923  eV     1   --> A_1  G_1 D_1   
     e(  2 -  2) =      6.00323  eV     1   --> B_2  G_4 D_2'  
     e(  3 -  4) =      6.07719  eV     2   --> E    G_5 D_5   
     e(  5 -  5) =      8.69176  eV     1   --> A_1  G_1 D_1   
     e(  6 -  7) =      8.92851  eV     2   --> E    G_5 D_5   
     e(  8 -  8) =      9.75650  eV     1   --> B_2  G_4 D_2'  
     e(  9 -  9) =     13.69792  eV     1   --> B_2  G_4 D_2'  
     e( 10 - 10) =     13.96698  eV     1   --> A_2  G_2 D_1'  

 **************************************************************************

 **************************************************************************

                    xk=(  -0.10000,   0.00000,   0.00000  )

     Band symmetry, C_4v (4mm)  point group:

     e(  1 -  1) =     -5.71586  eV     1   --> A_1  G_1 D_1   
     e(  2 -  2) =      5.92228  eV     1   --> B_2  G_4 D_2'  
     e(  3 -  4) =      6.02663  eV     2   --> E    G_5 D_5   
     e(  5 -  5) =      8.66049  eV     1   --> A_1  G_1 D_1   
     e(  6 -  7) =      8.99550  eV     2   --> E    G_5 D_5   
     e(  8 -  8) =      9.83348  eV     1   --> B_2  G_4 D_2'  
     e(  9 -  9) =     13.60535  eV     1   --> B_2  G_4 D_2'  
     e( 10 - 10) =     13.98179  eV     1   --> A_2  G_2 D_1'  

 **************************************************************************

 **************************************************************************

                    xk=(  -0.11667,   0.00000,   0.00000  )

     Band symmetry, C_4v (4mm)  point group:

     e(  1 -  1) =     -5.70007  eV     1   --> A_1  G_1 D_1   
     e(  2 -  2) =      5.83096  eV     1   --> B_2  G_4 D_2'  
     e(  3 -  4) =      5.96989  eV     2   --> E    G_5 D_5   
     e(  5 -  5) =      8.62447  eV     1   --> A_1  G_1 D_1   
     e(  6 -  7) =      9.07166  eV     2   --> E    G_5 D_5   
     e(  8 -  8) =      9.91889  eV     1   --> B_2  G_4 D_2'  
     e(  9 -  9) =     13.50336  eV     1   --> B_2  G_4 D_2'  
     e( 10 - 10) =     13.99930  eV     1   --> A_2  G_2 D_1'  

 **************************************************************************

 **************************************************************************

                    xk=(  -0.13333,   0.00000,   0.00000  )

     Band symmetry, C_4v (4mm)  point group:

     e(  1 -  1) =     -5.68185  eV     1   --> A_1  G_1 D_1   
     e(  2 -  2) =      5.73068  eV     1   --> B_2  G_4 D_2'  
     e(  3 -  4) =      5.90796  eV     2   --> E    G_5 D_5   
     e(  5 -  5) =      8.58410  eV     1   --> A_1  G_1 D_1   
     e(  6 -  7) =      9.15595  eV     2   --> E    G_5 D_5   
     e(  8 -  8) =     10.01056  eV     1   --> B_2  G_4 D_2'  
     e(  9 -  9) =     13.39471  eV     1   --> B_2  G_4 D_2'  
     e( 10 - 10) =     14.01950  eV     1   --> A_2  G_2 D_1'  

 **************************************************************************

 **************************************************************************

                    xk=(  -0.15000,   0.00000,   0.00000  )

     Band symmetry, C_4v (4mm)  point group:

     e(  1 -  1) =     -5.66121  eV     1   --> A_1  G_1 D_1   
     e(  2 -  2) =      5.62274  eV     1   --> B_2  G_4 D_2'  
     e(  3 -  4) =      5.84178  eV     2   --> E    G_5 D_5   
     e(  5 -  5) =      8.53980  eV     1   --> A_1  G_1 D_1   
     e(  6 -  7) =      9.24745  eV     2   --> E    G_5 D_5   
     e(  8 -  8) =     10.10619  eV     1   --> B_2  G_4 D_2'  
     e(  9 -  9) =     13.28227  eV     1   --> B_2  G_4 D_2'  
     e( 10 - 10) =     14.04239  eV     1   --> A_2  G_2 D_1'  

 **************************************************************************

 **************************************************************************

                    xk=(  -0.16667,   0.00000,   0.00000  )

     Band symmetry, C_4v (4mm)  point group:

     e(  1 -  1) =     -5.63816  eV     1   --> A_1  G_1 D_1   
     e(  2 -  2) =      5.50826  eV     1   --> B_2  G_4 D_2'  
     e(  3 -  4) =      5.77217  eV     2   --> E    G_5 D_5   
     e(  5 -  5) =      8.49199  eV     1   --> A_1  G_1 D_1   
     e(  6 -  7) =      9.34531  eV     2   --> E    G_5 D_5   
     e(  8 -  8) =     10.20329  eV     1   --> B_2  G_4 D_2'  
     e(  9 -  9) =     13.16901  eV     1   --> B_2  G_4 D_2'  
     e( 10 - 10) =     14.06797  eV     1   --> A_2  G_2 D_1'  

 **************************************************************************

 **************************************************************************

                    xk=(  -0.18333,   0.00000,   0.00000  )

     Band symmetry, C_4v (4mm)  point group:

     e(  1 -  1) =     -5.61268  eV     1   --> A_1  G_1 D_1   
     e(  2 -  2) =      5.38825  eV     1   --> B_2  G_4 D_2'  
     e(  3 -  4) =      5.69987  eV     2   --> E    G_5 D_5   
     e(  5 -  5) =      8.44112  eV     1   --> A_1  G_1 D_1   
     e(  6 -  7) =      9.44878  eV     2   --> E    G_5 D_5   
     e(  8 -  8) =     10.29908  eV     1   --> B_2  G_4 D_2'  
     e(  9 -  9) =     13.05819  eV     1   --> B_2  G_4 D_2'  
     e( 10 - 10) =     14.09624  eV     1   --> A_2  G_2 D_1'  

 **************************************************************************

 **************************************************************************

                    xk=(  -0.20000,   0.00000,   0.00000  )

     Band symmetry, C_4v (4mm)  point group:

     e(  1 -  1) =     -5.58480  eV     1   --> A_1  G_1 D_1   
     e(  2 -  2) =      5.26353  eV     1   --> B_2  G_4 D_2'  
     e(  3 -  4) =      5.62552  eV     2   --> E    G_5 D_5   
     e(  5 -  5) =      8.38759  eV     1   --> A_1  G_1 D_1   
     e(  6 -  7) =      9.55720  eV     2   --> E    G_5 D_5   
     e(  8 -  8) =     10.39036  eV     1   --> B_2  G_4 D_2'  
     e(  9 -  9) =     12.95338  eV     1   --> B_2  G_4 D_2'  
     e( 10 - 10) =     14.12720  eV     1   --> A_2  G_2 D_1'  

 **************************************************************************

 **************************************************************************

                    xk=(  -0.21667,   0.00000,   0.00000  )

     Band symmetry, C_4v (4mm)  point group:

     e(  1 -  1) =     -5.55452  eV     1   --> A_1  G_1 D_1   
     e(  2 -  2) =      5.13485  eV     1   --> B_2  G_4 D_2'  
     e(  3 -  4) =      5.54966  eV     2   --> E    G_5 D_5   
     e(  5 -  5) =      8.33181  eV     1   --> A_1  G_1 D_1   
     e(  6 -  7) =      9.67001  eV     2   --> E    G_5 D_5   
     e(  8 -  8) =     10.47341  eV     1   --> B_2  G_4 D_2'  
     e(  9 -  9) =     12.85866  eV     1   --> B_2  G_4 D_2'  
     e( 10 - 10) =     14.16085  eV     1   --> A_2  G_2 D_1'  

 **************************************************************************

 **************************************************************************

                    xk=(  -0.23333,   0.00000,   0.00000  )

     Band symmetry, C_4v (4mm)  point group:

     e(  1 -  1) =     -5.52182  eV     1   --> A_1  G_1 D_1   
     e(  2 -  2) =      5.00278  eV     1   --> B_2  G_4 D_2'  
     e(  3 -  4) =      5.47277  eV     2   --> E    G_5 D_5   
     e(  5 -  5) =      8.27418  eV     1   --> A_1  G_1 D_1   
     e(  6 -  7) =      9.78672  eV     2   --> E    G_5 D_5   
     e(  8 -  8) =     10.54394  eV     1   --> B_2  G_4 D_2'  
     e(  9 -  9) =     12.77865  eV     1   --> B_2  G_4 D_2'  
     e( 10 - 10) =     14.19719  eV     1   --> A_2  G_2 D_1'  

 **************************************************************************

 **************************************************************************

                    xk=(  -0.25000,   0.00000,   0.00000  )

     Band symmetry, C_4v (4mm)  point group:

     e(  1 -  1) =     -5.48674  eV     1   --> A_1  G_1 D_1   
     e(  2 -  2) =      4.86786  eV     1   --> B_2  G_4 D_2'  
     e(  3 -  4) =      5.39526  eV     2   --> E    G_5 D_5   
     e(  5 -  5) =      8.21507  eV     1   --> A_1  G_1 D_1   
     e(  6 -  7) =      9.90691  eV     2   --> E    G_5 D_5   
     e(  8 -  8) =     10.59728  eV     1   --> B_2  G_4 D_2'  
     e(  9 -  9) =     12.71826  eV     1   --> B_2  G_4 D_2'  
     e( 10 - 10) =     14.23622  eV     1   --> A_2  G_2 D_1'  

 **************************************************************************

 **************************************************************************

                    xk=(  -0.26667,   0.00000,   0.00000  )

     Band symmetry, C_4v (4mm)  point group:

     e(  1 -  1) =     -5.44927  eV     1   --> A_1  G_1 D_1   
     e(  2 -  2) =      4.73051  eV     1   --> B_2  G_4 D_2'  
     e(  3 -  4) =      5.31747  eV     2   --> E    G_5 D_5   
     e(  5 -  5) =      8.15481  eV     1   --> A_1  G_1 D_1   
     e(  6 -  7) =     10.03021  eV     2   --> E    G_5 D_5   
     e(  8 -  8) =     10.62897  eV     1   --> B_2  G_4 D_2'  
     e(  9 -  9) =     12.68219  eV     1   --> B_2  G_4 D_2'  
     e( 10 - 10) =     14.27793  eV     1   --> A_2  G_2 D_1'  

 **************************************************************************

 **************************************************************************

                    xk=(  -0.28333,   0.00000,   0.00000  )

     Band symmetry, C_4v (4mm)  point group:

     e(  1 -  1) =     -5.40942  eV     1   --> A_1  G_1 D_1   
     e(  2 -  2) =      4.59109  eV     1   --> B_2  G_4 D_2'  
     e(  3 -  4) =      5.23969  eV     2   --> E    G_5 D_5   
     e(  5 -  5) =      8.09373  eV     1   --> A_1  G_1 D_1   
     e(  6 -  7) =     10.15631  eV     2   --> E    G_5 D_5   
     e(  8 -  8) =     10.63566  eV     1   --> B_2  G_4 D_2'  
     e(  9 -  9) =     12.67401  eV     1   --> B_2  G_4 D_2'  
     e( 10 - 10) =     14.32233  eV     1   --> A_2  G_2 D_1'  

 **************************************************************************

 **************************************************************************

                    xk=(  -0.30000,   0.00000,   0.00000  )

     Band symmetry, C_4v (4mm)  point group:

     e(  1 -  1) =     -5.36719  eV     1   --> A_1  G_1 D_1   
     e(  2 -  2) =      4.44991  eV     1   --> B_2  G_4 D_2'  
     e(  3 -  4) =      5.16220  eV     2   --> E    G_5 D_5   
     e(  5 -  5) =      8.03213  eV     1   --> A_1  G_1 D_1   
     e(  6 -  7) =     10.28493  eV     2   --> E    G_5 D_5   
     e(  8 -  8) =     10.61608  eV     1   --> B_2  G_4 D_2'  
     e(  9 -  9) =     12.69516  eV     1   --> B_2  G_4 D_2'  
     e( 10 - 10) =     14.36941  eV     1   --> A_2  G_2 D_1'  

 **************************************************************************

 **************************************************************************

                    xk=(  -0.31667,   0.00000,   0.00000  )

     Band symmetry, C_4v (4mm)  point group:

     e(  1 -  1) =     -5.32258  eV     1   --> A_1  G_1 D_1   
     e(  2 -  2) =      4.30722  eV     1   --> B_2  G_4 D_2'  
     e(  3 -  4) =      5.08520  eV     2   --> E    G_5 D_5   
     e(  5 -  5) =      7.97029  eV     1   --> A_1  G_1 D_1   
     e(  6 -  7) =     10.41583  eV     2   --> E    G_5 D_5   
     e(  8 -  8) =     10.57135  eV     1   --> B_2  G_4 D_2'  
     e(  9 -  9) =     12.74469  eV     1   --> B_2  G_4 D_2'  
     e( 10 - 10) =     14.41917  eV     1   --> A_2  G_2 D_1'  

 **************************************************************************

 **************************************************************************

                    xk=(  -0.33333,   0.00000,   0.00000  )

     Band symmetry, C_4v (4mm)  point group:

     e(  1 -  1) =     -5.27562  eV     1   --> A_1  G_1 D_1   
     e(  2 -  2) =      4.16325  eV     1   --> B_2  G_4 D_2'  
     e(  3 -  4) =      5.00888  eV     2   --> E    G_5 D_5   
     e(  5 -  5) =      7.90847  eV     1   --> A_1  G_1 D_1   
     e(  6 -  6) =     10.50451  eV     1   --> B_2  G_4 D_2'  
     e(  7 -  8) =     10.54880  eV     2   --> E    G_5 D_5   
     e(  9 -  9) =     12.81966  eV     1   --> B_2  G_4 D_2'  
     e( 10 - 10) =     14.47161  eV     1   --> A_2  G_2 D_1'  

 **************************************************************************

 **************************************************************************

                    xk=(  -0.35000,   0.00000,   0.00000  )

     Band symmetry, C_4v (4mm)  point group:

     e(  1 -  1) =     -5.22630  eV     1   --> A_1  G_1 D_1   
     e(  2 -  2) =      4.01819  eV     1   --> B_2  G_4 D_2'  
     e(  3 -  4) =      4.93343  eV     2   --> E    G_5 D_5   
     e(  5 -  5) =      7.84689  eV     1   --> A_1  G_1 D_1   
     e(  6 -  6) =     10.41960  eV     1   --> B_2  G_4 D_2'  
     e(  7 -  8) =     10.68366  eV     2   --> E    G_5 D_5   
     e(  9 -  9) =     12.91617  eV     1   --> B_2  G_4 D_2'  
     e( 10 - 10) =     14.52674  eV     1   --> A_2  G_2 D_1'  

 **************************************************************************

 **************************************************************************

                    xk=(  -0.36667,   0.00000,   0.00000  )

     Band symmetry, C_4v (4mm)  point group:

     e(  1 -  1) =     -5.17463  eV     1   --> A_1  G_1 D_1   
     e(  2 -  2) =      3.87217  eV     1   --> B_2  G_4 D_2'  
     e(  3 -  4) =      4.85896  eV     2   --> E    G_5 D_5   
     e(  5 -  5) =      7.78579  eV     1   --> A_1  G_1 D_1   
     e(  6 -  6) =     10.32069  eV     1   --> B_2  G_4 D_2'  
     e(  7 -  8) =     10.82025  eV     2   --> E    G_5 D_5   
     e(  9 -  9) =     13.03021  eV     1   --> B_2  G_4 D_2'  
     e( 10 - 10) =     14.58453  eV     1   --> A_2  G_2 D_1'  

 **************************************************************************

 **************************************************************************

                    xk=(  -0.38333,   0.00000,   0.00000  )

     Band symmetry, C_4v (4mm)  point group:

     e(  1 -  1) =     -5.12062  eV     1   --> A_1  G_1 D_1   
     e(  2 -  2) =      3.72537  eV     1   --> B_2  G_4 D_2'  
     e(  3 -  4) =      4.78563  eV     2   --> E    G_5 D_5   
     e(  5 -  5) =      7.72534  eV     1   --> A_1  G_1 D_1   
     e(  6 -  6) =     10.21139  eV     1   --> B_2  G_4 D_2'  
     e(  7 -  8) =     10.95842  eV     2   --> E    G_5 D_5   
     e(  9 -  9) =     13.15826  eV     1   --> B_2  G_4 D_2'  
     e( 10 - 10) =     14.64501  eV     1   --> A_2  G_2 D_1'  

 **************************************************************************

 **************************************************************************

                    xk=(  -0.40000,   0.00000,   0.00000  )

     Band symmetry, C_4v (4mm)  point group:

     e(  1 -  1) =     -5.06428  eV     1   --> A_1  G_1 D_1   
     e(  2 -  2) =      3.57789  eV     1   --> B_2  G_4 D_2'  
     e(  3 -  4) =      4.71353  eV     2   --> E    G_5 D_5   
     e(  5 -  5) =      7.66575  eV     1   --> A_1  G_1 D_1   
     e(  6 -  6) =     10.09468  eV     1   --> B_2  G_4 D_2'  
     e(  7 -  8) =     11.09806  eV     2   --> E    G_5 D_5   
     e(  9 -  9) =     13.29739  eV     1   --> B_2  G_4 D_2'  
     e( 10 - 10) =     14.70816  eV     1   --> A_2  G_2 D_1'  

 **************************************************************************

 **************************************************************************

                    xk=(  -0.41667,   0.00000,   0.00000  )

     Band symmetry, C_4v (4mm)  point group:

     e(  1 -  1) =     -5.00563  eV     1   --> A_1  G_1 D_1   
     e(  2 -  2) =      3.42983  eV     1   --> B_2  G_4 D_2'  
     e(  3 -  4) =      4.64277  eV     2   --> E    G_5 D_5   
     e(  5 -  5) =      7.60717  eV     1   --> A_1  G_1 D_1   
     e(  6 -  6) =      9.97292  eV     1   --> B_2  G_4 D_2'  
     e(  7 -  8) =     11.23904  eV     2   --> E    G_5 D_5   
     e(  9 -  9) =     13.44530  eV     1   --> B_2  G_4 D_2'  
     e( 10 - 10) =     14.77399  eV     1   --> A_2  G_2 D_1'  

 **************************************************************************

 **************************************************************************

                    xk=(  -0.43333,   0.00000,   0.00000  )

     Band symmetry, C_4v (4mm)  point group:

     e(  1 -  1) =     -4.94466  eV     1   --> A_1  G_1 D_1   
     e(  2 -  2) =      3.28130  eV     1   --> B_2  G_4 D_2'  
     e(  3 -  4) =      4.57343  eV     2   --> E    G_5 D_5   
     e(  5 -  5) =      7.54976  eV     1   --> A_1  G_1 D_1   
     e(  6 -  6) =      9.84792  eV     1   --> B_2  G_4 D_2'  
     e(  7 -  8) =     11.38126  eV     2   --> E    G_5 D_5   
     e(  9 -  9) =     13.60016  eV     1   --> B_2  G_4 D_2'  
     e( 10 - 10) =     14.84248  eV     1   --> A_2  G_2 D_1'  

 **************************************************************************

 **************************************************************************

                    xk=(  -0.45000,   0.00000,   0.00000  )

     Band symmetry, C_4v (4mm)  point group:

     e(  1 -  1) =     -4.88139  eV     1   --> A_1  G_1 D_1   
     e(  2 -  2) =      3.13237  eV     1   --> B_2  G_4 D_2'  
     e(  3 -  4) =      4.50559  eV     2   --> E    G_5 D_5   
     e(  5 -  5) =      7.49366  eV     1   --> A_1  G_1 D_1   
     e(  6 -  6) =      9.72110  eV     1   --> B_2  G_4 D_2'  
[...]
     e(  9 - 10) =     13.26986  eV     2   --> E    L_3       

 **************************************************************************

 **************************************************************************

                    xk=(  -0.20000,   0.20000,   0.20000  )

     Band symmetry, C_3v (3m)   point group:

     e(  1 -  1) =     -5.24231  eV     1   --> A_1  L_1       
     e(  2 -  2) =      3.19277  eV     1   --> A_1  L_1       
     e(  3 -  4) =      5.62258  eV     2   --> E    L_3       
     e(  5 -  5) =      8.42246  eV     1   --> A_1  L_1       
     e(  6 -  7) =      9.56669  eV     2   --> E    L_3       
     e(  8 -  8) =     12.25237  eV     1   --> A_1  L_1       
     e(  9 - 10) =     13.26320  eV     2   --> E    L_3       

 **************************************************************************

 **************************************************************************

                    xk=(  -0.19167,   0.19167,   0.19167  )

     Band symmetry, C_3v (3m)   point group:

     e(  1 -  1) =     -5.28383  eV     1   --> A_1  L_1       
     e(  2 -  2) =      3.34906  eV     1   --> A_1  L_1       
     e(  3 -  4) =      5.65445  eV     2   --> E    L_3       
     e(  5 -  5) =      8.45531  eV     1   --> A_1  L_1       
     e(  6 -  7) =      9.53198  eV     2   --> E    L_3       
     e(  8 -  8) =     12.10322  eV     1   --> A_1  L_1       
     e(  9 - 10) =     13.26310  eV     2   --> E    L_3       

 **************************************************************************

 **************************************************************************

                    xk=(  -0.18333,   0.18333,   0.18333  )

     Band symmetry, C_3v (3m)   point group:

     e(  1 -  1) =     -5.32372  eV     1   --> A_1  L_1       
     e(  2 -  2) =      3.50590  eV     1   --> A_1  L_1       
     e(  3 -  4) =      5.68665  eV     2   --> E    L_3       
     e(  5 -  5) =      8.48815  eV     1   --> A_1  L_1       
     e(  6 -  7) =      9.49470  eV     2   --> E    L_3       
     e(  8 -  8) =     11.95352  eV     1   --> A_1  L_1       
     e(  9 - 10) =     13.26923  eV     2   --> E    L_3       

 **************************************************************************

 **************************************************************************

                    xk=(  -0.17500,   0.17500,   0.17500  )

     Band symmetry, C_3v (3m)   point group:

     e(  1 -  1) =     -5.36194  eV     1   --> A_1  L_1       
     e(  2 -  2) =      3.66314  eV     1   --> A_1  L_1       
     e(  3 -  4) =      5.71910  eV     2   --> E    L_3       
     e(  5 -  5) =      8.52085  eV     1   --> A_1  L_1       
     e(  6 -  7) =      9.45515  eV     2   --> E    L_3       
     e(  8 -  8) =     11.80346  eV     1   --> A_1  L_1       
     e(  9 - 10) =     13.28124  eV     2   --> E    L_3       

 **************************************************************************

 **************************************************************************

                    xk=(  -0.16667,   0.16667,   0.16667  )

     Band symmetry, C_3v (3m)   point group:

     e(  1 -  1) =     -5.39849  eV     1   --> A_1  L_1       
     e(  2 -  2) =      3.82059  eV     1   --> A_1  L_1       
     e(  3 -  4) =      5.75172  eV     2   --> E    L_3       
     e(  5 -  5) =      8.55326  eV     1   --> A_1  L_1       
     e(  6 -  7) =      9.41366  eV     2   --> E    L_3       
     e(  8 -  8) =     11.65330  eV     1   --> A_1  L_1       
     e(  9 - 10) =     13.29872  eV     2   --> E    L_3       

 **************************************************************************

 **************************************************************************

                    xk=(  -0.15833,   0.15833,   0.15833  )

     Band symmetry, C_3v (3m)   point group:

     e(  1 -  1) =     -5.43335  eV     1   --> A_1  L_1       
     e(  2 -  2) =      3.97805  eV     1   --> A_1  L_1       
     e(  3 -  4) =      5.78439  eV     2   --> E    L_3       
     e(  5 -  5) =      8.58520  eV     1   --> A_1  L_1       
     e(  6 -  7) =      9.37061  eV     2   --> E    L_3       
     e(  8 -  8) =     11.50328  eV     1   --> A_1  L_1       
     e(  9 - 10) =     13.32124  eV     2   --> E    L_3       

 **************************************************************************

 **************************************************************************

                    xk=(  -0.15000,   0.15000,   0.15000  )

     Band symmetry, C_3v (3m)   point group:

     e(  1 -  1) =     -5.46649  eV     1   --> A_1  L_1       
     e(  2 -  2) =      4.13530  eV     1   --> A_1  L_1       
     e(  3 -  4) =      5.81701  eV     2   --> E    L_3       
     e(  5 -  5) =      8.61649  eV     1   --> A_1  L_1       
     e(  6 -  7) =      9.32636  eV     2   --> E    L_3       
     e(  8 -  8) =     11.35367  eV     1   --> A_1  L_1       
     e(  9 - 10) =     13.34833  eV     2   --> E    L_3       

 **************************************************************************

 **************************************************************************

                    xk=(  -0.14167,   0.14167,   0.14167  )

     Band symmetry, C_3v (3m)   point group:

     e(  1 -  1) =     -5.49791  eV     1   --> A_1  L_1       
     e(  2 -  2) =      4.29208  eV     1   --> A_1  L_1       
     e(  3 -  4) =      5.84946  eV     2   --> E    L_3       
     e(  5 -  5) =      8.64691  eV     1   --> A_1  L_1       
     e(  6 -  7) =      9.28132  eV     2   --> E    L_3       
     e(  8 -  8) =     11.20480  eV     1   --> A_1  L_1       
     e(  9 - 10) =     13.37948  eV     2   --> E    L_3       

 **************************************************************************

 **************************************************************************

                    xk=(  -0.13333,   0.13333,   0.13333  )

     Band symmetry, C_3v (3m)   point group:

     e(  1 -  1) =     -5.52758  eV     1   --> A_1  L_1       
     e(  2 -  2) =      4.44808  eV     1   --> A_1  L_1       
     e(  3 -  4) =      5.88159  eV     2   --> E    L_3       
     e(  5 -  5) =      8.67623  eV     1   --> A_1  L_1       
     e(  6 -  7) =      9.23588  eV     2   --> E    L_3       
     e(  8 -  8) =     11.05704  eV     1   --> A_1  L_1       
     e(  9 - 10) =     13.41418  eV     2   --> E    L_3       

 **************************************************************************

 **************************************************************************

                    xk=(  -0.12500,   0.12500,   0.12500  )

     Band symmetry, C_3v (3m)   point group:

     e(  1 -  1) =     -5.55551  eV     1   --> A_1  L_1       
     e(  2 -  2) =      4.60296  eV     1   --> A_1  L_1       
     e(  3 -  4) =      5.91326  eV     2   --> E    L_3       
     e(  5 -  5) =      8.70415  eV     1   --> A_1  L_1       
     e(  6 -  7) =      9.19044  eV     2   --> E    L_3       
     e(  8 -  8) =     10.91086  eV     1   --> A_1  L_1       
     e(  9 - 10) =     13.45189  eV     2   --> E    L_3       

 **************************************************************************

 **************************************************************************

                    xk=(  -0.11667,   0.11667,   0.11667  )

     Band symmetry, C_3v (3m)   point group:

     e(  1 -  1) =     -5.58168  eV     1   --> A_1  L_1       
     e(  2 -  2) =      4.75631  eV     1   --> A_1  L_1       
     e(  3 -  4) =      5.94431  eV     2   --> E    L_3       
     e(  5 -  5) =      8.73037  eV     1   --> A_1  L_1       
     e(  6 -  7) =      9.14541  eV     2   --> E    L_3       
     e(  8 -  8) =     10.76678  eV     1   --> A_1  L_1       
     e(  9 - 10) =     13.49202  eV     2   --> E    L_3       

 **************************************************************************

 **************************************************************************

                    xk=(  -0.10833,   0.10833,   0.10833  )

     Band symmetry, C_3v (3m)   point group:

     e(  1 -  1) =     -5.60611  eV     1   --> A_1  L_1       
     e(  2 -  2) =      4.90765  eV     1   --> A_1  L_1       
     e(  3 -  4) =      5.97457  eV     2   --> E    L_3       
     e(  5 -  5) =      8.75453  eV     1   --> A_1  L_1       
     e(  6 -  7) =      9.10119  eV     2   --> E    L_3       
     e(  8 -  8) =     10.62549  eV     1   --> A_1  L_1       
     e(  9 - 10) =     13.53399  eV     2   --> E    L_3       

 **************************************************************************

 **************************************************************************

                    xk=(  -0.10000,   0.10000,   0.10000  )

     Band symmetry, C_3v (3m)   point group:

     e(  1 -  1) =     -5.62873  eV     1   --> A_1  L_1       
     e(  2 -  2) =      5.05640  eV     1   --> A_1  L_1       
     e(  3 -  4) =      6.00385  eV     2   --> E    L_3       
     e(  5 -  5) =      8.77620  eV     1   --> A_1  L_1       
     e(  6 -  7) =      9.05818  eV     2   --> E    L_3       
     e(  8 -  8) =     10.48777  eV     1   --> A_1  L_1       
     e(  9 - 10) =     13.57718  eV     2   --> E    L_3       

 **************************************************************************

 **************************************************************************

                    xk=(  -0.09167,   0.09167,   0.09167  )

     Band symmetry, C_3v (3m)   point group:

     e(  1 -  1) =     -5.64958  eV     1   --> A_1  L_1       
     e(  2 -  2) =      5.20187  eV     1   --> A_1  L_1       
     e(  3 -  4) =      6.03195  eV     2   --> E    L_3       
     e(  5 -  5) =      8.79491  eV     1   --> A_1  L_1       
     e(  6 -  7) =      9.01676  eV     2   --> E    L_3       
     e(  8 -  8) =     10.35459  eV     1   --> A_1  L_1       
     e(  9 - 10) =     13.62091  eV     2   --> E    L_3       

 **************************************************************************

 **************************************************************************

                    xk=(  -0.08333,   0.08333,   0.08333  )

     Band symmetry, C_3v (3m)   point group:

     e(  1 -  1) =     -5.66864  eV     1   --> A_1  L_1       
     e(  2 -  2) =      5.34324  eV     1   --> A_1  L_1       
     e(  3 -  4) =      6.05865  eV     2   --> E    L_3       
     e(  5 -  5) =      8.81013  eV     1   --> A_1  L_1       
     e(  6 -  7) =      8.97733  eV     2   --> E    L_3       
     e(  8 -  8) =     10.22713  eV     1   --> A_1  L_1       
     e(  9 - 10) =     13.66452  eV     2   --> E    L_3       

 **************************************************************************

 **************************************************************************

                    xk=(  -0.07500,   0.07500,   0.07500  )

     Band symmetry, C_3v (3m)   point group:

     e(  1 -  1) =     -5.68589  eV     1   --> A_1  L_1       
     e(  2 -  2) =      5.47952  eV     1   --> A_1  L_1       
     e(  3 -  4) =      6.08375  eV     2   --> E    L_3       
     e(  5 -  5) =      8.82129  eV     1   --> A_1  L_1       
     e(  6 -  7) =      8.94026  eV     2   --> E    L_3       
     e(  8 -  8) =     10.10676  eV     1   --> A_1  L_1       
     e(  9 - 10) =     13.70729  eV     2   --> E    L_3       

 **************************************************************************

 **************************************************************************

                    xk=(  -0.06667,   0.06667,   0.06667  )

     Band symmetry, C_3v (3m)   point group:

     e(  1 -  1) =     -5.70134  eV     1   --> A_1  L_1       
     e(  2 -  2) =      5.60949  eV     1   --> A_1  L_1       
     e(  3 -  4) =      6.10702  eV     2   --> E    L_3       
     e(  5 -  5) =      8.82783  eV     1   --> A_1  L_1       
     e(  6 -  7) =      8.90592  eV     2   --> E    L_3       
     e(  8 -  8) =      9.99507  eV     1   --> A_1  L_1       
     e(  9 - 10) =     13.74847  eV     2   --> E    L_3       

 **************************************************************************

 **************************************************************************

                    xk=(  -0.05833,   0.05833,   0.05833  )

     Band symmetry, C_3v (3m)   point group:

     e(  1 -  1) =     -5.71499  eV     1   --> A_1  L_1       
     e(  2 -  2) =      5.73173  eV     1   --> A_1  L_1       
     e(  3 -  4) =      6.12824  eV     2   --> E    L_3       
     e(  5 -  5) =      8.82928  eV     1   --> A_1  L_1       
     e(  6 -  7) =      8.87466  eV     2   --> E    L_3       
     e(  8 -  8) =      9.89376  eV     1   --> A_1  L_1       
     e(  9 - 10) =     13.78730  eV     2   --> E    L_3       

 **************************************************************************

 **************************************************************************

                    xk=(  -0.05000,   0.05000,   0.05000  )

     Band symmetry, C_3v (3m)   point group:

     e(  1 -  1) =     -5.72681  eV     1   --> A_1  L_1       
     e(  2 -  2) =      5.84451  eV     1   --> A_1  L_1       
     e(  3 -  4) =      6.14717  eV     2   --> E    L_3       
     e(  5 -  5) =      8.82551  eV     1   --> A_1  L_1       
     e(  6 -  7) =      8.84681  eV     2   --> E    L_3       
     e(  8 -  8) =      9.80455  eV     1   --> A_1  L_1       
     e(  9 - 10) =     13.82302  eV     2   --> E    L_3       

 **************************************************************************

 **************************************************************************

                    xk=(  -0.04167,   0.04167,   0.04167  )

     Band symmetry, C_3v (3m)   point group:

     e(  1 -  1) =     -5.73683  eV     1   --> A_1  L_1       
     e(  2 -  2) =      5.94587  eV     1   --> A_1  L_1       
     e(  3 -  4) =      6.16362  eV     2   --> E    L_3       
     e(  5 -  5) =      8.81689  eV     1   --> A_1  L_1       
     e(  6 -  7) =      8.82266  eV     2   --> E    L_3       
     e(  8 -  8) =      9.72884  eV     1   --> A_1  L_1       
     e(  9 - 10) =     13.85485  eV     2   --> E    L_3       

 **************************************************************************

 **************************************************************************

                    xk=(  -0.03333,   0.03333,   0.03333  )

     Band symmetry, C_3v (3m)   point group:

     e(  1 -  1) =     -5.74503  eV     1   --> A_1  L_1       
     e(  2 -  2) =      6.03356  eV     1   --> A_1  L_1       
     e(  3 -  4) =      6.17737  eV     2   --> E    L_3       
     e(  5 -  6) =      8.80250  eV     2   --> E    L_3       
     e(  7 -  7) =      8.80463  eV     1   --> A_1  L_1       
     e(  8 -  8) =      9.66755  eV     1   --> A_1  L_1       
     e(  9 - 10) =     13.88207  eV     2   --> E    L_3       

 **************************************************************************

 **************************************************************************

                    xk=(  -0.02500,   0.02500,   0.02500  )

     Band symmetry, C_3v (3m)   point group:

     e(  1 -  1) =     -5.75141  eV     1   --> A_1  L_1       
     e(  2 -  2) =      6.10521  eV     1   --> A_1  L_1       
     e(  3 -  4) =      6.18827  eV     2   --> E    L_3       
     e(  5 -  6) =      8.78656  eV     2   --> E    L_3       
     e(  7 -  7) =      8.79078  eV     1   --> A_1  L_1       
     e(  8 -  8) =      9.62088  eV     1   --> A_1  L_1       
     e(  9 - 10) =     13.90402  eV     2   --> E    L_3       

 **************************************************************************

 **************************************************************************

                    xk=(  -0.01667,   0.01667,   0.01667  )

     Band symmetry, C_3v (3m)   point group:

     e(  1 -  1) =     -5.75597  eV     1   --> A_1  L_1       
     e(  2 -  2) =      6.15850  eV     1   --> A_1  L_1       
     e(  3 -  4) =      6.19616  eV     2   --> E    L_3       
     e(  5 -  6) =      8.77503  eV     2   --> E    L_3       
     e(  7 -  7) =      8.77800  eV     1   --> A_1  L_1       
     e(  8 -  8) =      9.58839  eV     1   --> A_1  L_1       
     e(  9 - 10) =     13.92014  eV     2   --> E    L_3       

 **************************************************************************

 **************************************************************************

                    xk=(  -0.00833,   0.00833,   0.00833  )

     Band symmetry, C_3v (3m)   point group:

     e(  1 -  1) =     -5.75869  eV     1   --> A_1  L_1       
     e(  2 -  2) =      6.19141  eV     1   --> A_1  L_1       
     e(  3 -  4) =      6.20094  eV     2   --> E    L_3       
     e(  5 -  6) =      8.76806  eV     2   --> E    L_3       
     e(  7 -  7) =      8.76898  eV     1   --> A_1  L_1       
     e(  8 -  8) =      9.56936  eV     1   --> A_1  L_1       
     e(  9 - 10) =     13.93000  eV     2   --> E    L_3       

 **************************************************************************

 **************************************************************************

                    xk=(   0.00000,   0.00000,   0.00000  )

     point group O_h (m-3m) 
     there are 10 classes
     the character table:

       E     8C3   3C2   6C4   6C2'  i     8S6   3s_h  6S4   6s_d 
A_1g   1.00  1.00  1.00  1.00  1.00  1.00  1.00  1.00  1.00  1.00
A_2g   1.00  1.00  1.00 -1.00 -1.00  1.00  1.00  1.00 -1.00 -1.00
E_g    2.00 -1.00  2.00  0.00  0.00  2.00 -1.00  2.00  0.00  0.00
T_1g   3.00  0.00 -1.00  1.00 -1.00  3.00  0.00 -1.00  1.00 -1.00
T_2g   3.00  0.00 -1.00 -1.00  1.00  3.00  0.00 -1.00 -1.00  1.00
A_1u   1.00  1.00  1.00  1.00  1.00 -1.00 -1.00 -1.00 -1.00 -1.00
A_2u   1.00  1.00  1.00 -1.00 -1.00 -1.00 -1.00 -1.00  1.00  1.00
E_u    2.00 -1.00  2.00  0.00  0.00 -2.00  1.00 -2.00  0.00  0.00
T_1u   3.00  0.00 -1.00  1.00 -1.00 -3.00  0.00  1.00 -1.00  1.00
T_2u   3.00  0.00 -1.00 -1.00  1.00 -3.00  0.00  1.00  1.00 -1.00

     the symmetry operations in each class and the name of the first element:

     E        1
                                                                 
     8C3     17   19   20   18   24   21   22   23
                                                                 
     3C2      2    4    3
                                                                 
     6C4      7    8   15   16   12   11
                                                                 
     6C2'     5    6   14   13   10    9
                                                                 
     i       25
                                                                 
     8S6     41   43   44   42   48   45   46   47
                                                                 
     3s_h    26   28   27
                                                                 
     6S4     31   32   39   40   36   35
                                                                 
     6s_d    29   30   38   37   34   33
                                                                 

     Band symmetry, O_h (m-3m)  point group:

     e(  1 -  1) =     -5.75960  eV     1   --> A_1g G_1   G_1+
     e(  2 -  4) =      6.20254  eV     3   --> T_2g G_25' G_5+
     e(  5 -  7) =      8.76572  eV     3   --> T_1u G_15  G_4-
     e(  8 -  8) =      9.56310  eV     1   --> A_2u G_2'  G_2-
     e(  9 - 10) =     13.93331  eV     2   --> E_u  G_12' G_3-

 **************************************************************************
 
     BANDS        :      7.85s CPU      8.05s WALL

 
   This run was terminated on:   9: 3:49  22Mar2023            

=------------------------------------------------------------------------------=
   JOB DONE.
=------------------------------------------------------------------------------=
