
     Program PWSCF v.7.1 starts on 22Mar2023 at  9: 3:25 

     This program is part of the open-source Quantum ESPRESSO suite
     for quantum simulation of materials; please cite
         "P. Giannozzi et al., J. Phys.:Condens. Matter 21 395502 (2009);
         "P. Giannozzi et al., J. Phys.:Condens. Matter 29 465901 (2017);
         "P. Giannozzi et al., J. Chem. Phys. 152 154105 (2020);
          URL http://www.quantum-espresso.org", 
     in publications or presentations arising from this work. More details at
     http://www.quantum-espresso.org/quote

     Parallel version (MPI), running on     4 processors

     MPI processes distributed on     1 nodes
     174196 MiB available memory on the printing compute node when the environment starts
 
     Reading input from bands.in

     Current dimensions of program PWSCF are:
     Max number of different atomic species (ntypx) = 10
     Max number of k-points (npk) =  40000
     Max angular momentum in pseudopotentials (lmaxx) =  4

     Atomic positions and unit cell read from directory:
     ./si.save/
 
 
     K-points division:     npool     =       2
     R & G space division:  proc/nbgrp/npool/nimage =       2
     Subspace diagonalization in iterative solution of the eigenvalue problem:
     a serial algorithm will be used

 
     Parallelization info
     --------------------
     sticks:   dense  smooth     PW     G-vecs:    dense   smooth      PW
     Min         536     291     93                11794     4628     795
     Max         539     292     94                11795     4629     796
     Sum        1075     583    187                23589     9257    1591
 
     Using Slab Decomposition
 


     bravais-lattice index     =            2
     lattice parameter (alat)  =      10.2623  a.u.
     unit-cell volume          =     270.1967 (a.u.)^3
     number of atoms/cell      =            2
     number of atomic types    =            1
     number of electrons       =         8.00
     number of Kohn-Sham states=           10
     kinetic-energy cutoff     =      40.0000  Ry
     charge density cutoff     =     300.0000  Ry
     Exchange-correlation= PBE
                           (   1   4   3   4   0   0   0)

     celldm(1)=  10.262347  celldm(2)=   0.000000  celldm(3)=   0.000000
     celldm(4)=   0.000000  celldm(5)=   0.000000  celldm(6)=   0.000000

     crystal axes: (cart. coord. in units of alat)
               a(1) = (  -0.500000   0.000000   0.500000 )  
               a(2) = (   0.000000   0.500000   0.500000 )  
               a(3) = (  -0.500000   0.500000   0.000000 )  

     reciprocal axes: (cart. coord. in units 2 pi/alat)
               b(1) = ( -1.000000 -1.000000  1.000000 )  
               b(2) = (  1.000000  1.000000  1.000000 )  
               b(3) = ( -1.000000  1.000000 -1.000000 )  


     PseudoPot. # 1 for Si read from file:
     ./Si.pbe-n-rrkjus_psl.1.0.0.UPF
     MD5 check sum: 0b0bb1205258b0d07b9f9672cf965d36
     Pseudo is Ultrasoft + core correction, Zval =  4.0
     Generated using "atomic" code by A. Dal Corso  v.5.1
     Using radial grid of 1141 points,  6 beta functions with: 
                l(1) =   0
                l(2) =   0
                l(3) =   1
                l(4) =   1
                l(5) =   2
                l(6) =   2
     Q(r) pseudized with 0 coefficients 


     atomic species   valence    mass     pseudopotential
        Si             4.00    28.08550     Si( 1.00)

     48 Sym. Ops., with inversion, found (24 have fractional translation)


                                    s                        frac. trans.

      isym =  1     identity                                     

 cryst.   s( 1) = (     1          0          0      )
                  (     0          1          0      )
                  (     0          0          1      )

 cart.    s( 1) = (  1.0000000  0.0000000  0.0000000 )
                  (  0.0000000  1.0000000  0.0000000 )
                  (  0.0000000  0.0000000  1.0000000 )


      isym =  2     180 deg rotation - cart. axis [0,0,1]        

 cryst.   s( 2) = (     0          1         -1      )
                  (     1          0         -1      )
                  (     0          0         -1      )

 cart.    s( 2) = ( -1.0000000  0.0000000  0.0000000 )
                  (  0.0000000 -1.0000000  0.0000000 )
                  (  0.0000000  0.0000000  1.0000000 )


      isym =  3     180 deg rotation - cart. axis [0,1,0]        

 cryst.   s( 3) = (    -1          0          0      )
                  (    -1          0          1      )
                  (    -1          1          0      )

 cart.    s( 3) = ( -1.0000000  0.0000000  0.0000000 )
                  (  0.0000000  1.0000000  0.0000000 )
                  (  0.0000000  0.0000000 -1.0000000 )


      isym =  4     180 deg rotation - cart. axis [1,0,0]        

 cryst.   s( 4) = (     0         -1          1      )
                  (     0         -1          0      )
                  (     1         -1          0      )

 cart.    s( 4) = (  1.0000000  0.0000000  0.0000000 )
                  (  0.0000000 -1.0000000  0.0000000 )
                  (  0.0000000  0.0000000 -1.0000000 )


      isym =  5     180 deg rotation - cart. axis [1,1,0]        

 cryst.   s( 5) = (     0         -1          0      )    f =(  0.2500000 )
                  (    -1          0          0      )       (  0.2500000 )
                  (     0          0         -1      )       (  0.2500000 )

 cart.    s( 5) = (  0.0000000  1.0000000  0.0000000 )    f =( -0.2500000 )
                  (  1.0000000  0.0000000  0.0000000 )       (  0.2500000 )
                  (  0.0000000  0.0000000 -1.0000000 )       (  0.2500000 )


      isym =  6     180 deg rotation - cart. axis [1,-1,0]       

 cryst.   s( 6) = (    -1          0          1      )    f =(  0.2500000 )
                  (     0         -1          1      )       (  0.2500000 )
                  (     0          0          1      )       (  0.2500000 )

 cart.    s( 6) = (  0.0000000 -1.0000000  0.0000000 )    f =( -0.2500000 )
                  ( -1.0000000  0.0000000  0.0000000 )       (  0.2500000 )
                  (  0.0000000  0.0000000 -1.0000000 )       (  0.2500000 )


      isym =  7      90 deg rotation - cart. axis [0,0,-1]       

 cryst.   s( 7) = (     0          1          0      )    f =(  0.2500000 )
                  (     0          1         -1      )       (  0.2500000 )
                  (    -1          1          0      )       (  0.2500000 )

 cart.    s( 7) = (  0.0000000  1.0000000  0.0000000 )    f =( -0.2500000 )
                  ( -1.0000000  0.0000000  0.0000000 )       (  0.2500000 )
                  (  0.0000000  0.0000000  1.0000000 )       (  0.2500000 )


      isym =  8      90 deg rotation - cart. axis [0,0,1]        

 cryst.   s( 8) = (     1          0         -1      )    f =(  0.2500000 )
                  (     1          0          0      )       (  0.2500000 )
                  (     1         -1          0      )       (  0.2500000 )

 cart.    s( 8) = (  0.0000000 -1.0000000  0.0000000 )    f =( -0.2500000 )
                  (  1.0000000  0.0000000  0.0000000 )       (  0.2500000 )
                  (  0.0000000  0.0000000  1.0000000 )       (  0.2500000 )


      isym =  9     180 deg rotation - cart. axis [1,0,1]        

 cryst.   s( 9) = (    -1          0          0      )    f =(  0.2500000 )
                  (     0          0         -1      )       (  0.2500000 )
                  (     0         -1          0      )       (  0.2500000 )

 cart.    s( 9) = (  0.0000000  0.0000000  1.0000000 )    f =( -0.2500000 )
                  (  0.0000000 -1.0000000  0.0000000 )       (  0.2500000 )
                  (  1.0000000  0.0000000  0.0000000 )       (  0.2500000 )


      isym = 10     180 deg rotation - cart. axis [-1,0,1]       

 cryst.   s(10) = (     1          0          0      )    f =(  0.2500000 )
                  (     1         -1          0      )       (  0.2500000 )
                  (     1          0         -1      )       (  0.2500000 )

 cart.    s(10) = (  0.0000000  0.0000000 -1.0000000 )    f =( -0.2500000 )
                  (  0.0000000 -1.0000000  0.0000000 )       (  0.2500000 )
                  ( -1.0000000  0.0000000  0.0000000 )       (  0.2500000 )


      isym = 11      90 deg rotation - cart. axis [0,1,0]        

 cryst.   s(11) = (     0          1         -1      )    f =(  0.2500000 )
                  (    -1          1          0      )       (  0.2500000 )
                  (     0          1          0      )       (  0.2500000 )

 cart.    s(11) = (  0.0000000  0.0000000  1.0000000 )    f =( -0.2500000 )
                  (  0.0000000  1.0000000  0.0000000 )       (  0.2500000 )
                  ( -1.0000000  0.0000000  0.0000000 )       (  0.2500000 )


      isym = 12      90 deg rotation - cart. axis [0,-1,0]       

 cryst.   s(12) = (     0         -1          1      )    f =(  0.2500000 )
                  (     0          0          1      )       (  0.2500000 )
                  (    -1          0          1      )       (  0.2500000 )

 cart.    s(12) = (  0.0000000  0.0000000 -1.0000000 )    f =( -0.2500000 )
                  (  0.0000000  1.0000000  0.0000000 )       (  0.2500000 )
                  (  1.0000000  0.0000000  0.0000000 )       (  0.2500000 )


      isym = 13     180 deg rotation - cart. axis [0,1,1]        

 cryst.   s(13) = (    -1          1          0      )    f =(  0.2500000 )
                  (     0          1          0      )       (  0.2500000 )
                  (     0          1         -1      )       (  0.2500000 )

 cart.    s(13) = ( -1.0000000  0.0000000  0.0000000 )    f =( -0.2500000 )
                  (  0.0000000  0.0000000  1.0000000 )       (  0.2500000 )
                  (  0.0000000  1.0000000  0.0000000 )       (  0.2500000 )


      isym = 14     180 deg rotation - cart. axis [0,1,-1]       

 cryst.   s(14) = (     0          0         -1      )    f =(  0.2500000 )
                  (     0         -1          0      )       (  0.2500000 )
                  (    -1          0          0      )       (  0.2500000 )

 cart.    s(14) = ( -1.0000000  0.0000000  0.0000000 )    f =( -0.2500000 )
                  (  0.0000000  0.0000000 -1.0000000 )       (  0.2500000 )
                  (  0.0000000 -1.0000000  0.0000000 )       (  0.2500000 )


      isym = 15      90 deg rotation - cart. axis [-1,0,0]       

 cryst.   s(15) = (     0          0          1      )    f =(  0.2500000 )
                  (    -1          0          1      )       (  0.2500000 )
                  (     0         -1          1      )       (  0.2500000 )

 cart.    s(15) = (  1.0000000  0.0000000  0.0000000 )    f =( -0.2500000 )
                  (  0.0000000  0.0000000  1.0000000 )       (  0.2500000 )
                  (  0.0000000 -1.0000000  0.0000000 )       (  0.2500000 )


      isym = 16      90 deg rotation - cart. axis [1,0,0]        

 cryst.   s(16) = (     1         -1          0      )    f =(  0.2500000 )
                  (     1          0         -1      )       (  0.2500000 )
                  (     1          0          0      )       (  0.2500000 )

 cart.    s(16) = (  1.0000000  0.0000000  0.0000000 )    f =( -0.2500000 )
                  (  0.0000000  0.0000000 -1.0000000 )       (  0.2500000 )
                  (  0.0000000  1.0000000  0.0000000 )       (  0.2500000 )


      isym = 17     120 deg rotation - cart. axis [-1,-1,-1]     

 cryst.   s(17) = (    -1          0          1      )
                  (    -1          1          0      )
                  (    -1          0          0      )

 cart.    s(17) = (  0.0000000  1.0000000  0.0000000 )
                  (  0.0000000  0.0000000  1.0000000 )
                  (  1.0000000  0.0000000  0.0000000 )


      isym = 18     120 deg rotation - cart. axis [-1,1,1]       

 cryst.   s(18) = (     0          1          0      )
                  (     0          0          1      )
                  (     1          0          0      )

 cart.    s(18) = (  0.0000000 -1.0000000  0.0000000 )
                  (  0.0000000  0.0000000  1.0000000 )
                  ( -1.0000000  0.0000000  0.0000000 )


      isym = 19     120 deg rotation - cart. axis [1,1,-1]       

 cryst.   s(19) = (     1          0         -1      )
                  (     0          0         -1      )
                  (     0          1         -1      )

 cart.    s(19) = (  0.0000000  1.0000000  0.0000000 )
                  (  0.0000000  0.0000000 -1.0000000 )
                  ( -1.0000000  0.0000000  0.0000000 )


      isym = 20     120 deg rotation - cart. axis [1,-1,1]       

 cryst.   s(20) = (     0         -1          0      )
                  (     1         -1          0      )
                  (     0         -1          1      )

 cart.    s(20) = (  0.0000000 -1.0000000  0.0000000 )
                  (  0.0000000  0.0000000 -1.0000000 )
                  (  1.0000000  0.0000000  0.0000000 )


      isym = 21     120 deg rotation - cart. axis [1,1,1]        

 cryst.   s(21) = (     0          0         -1      )
                  (     0          1         -1      )
                  (     1          0         -1      )

 cart.    s(21) = (  0.0000000  0.0000000  1.0000000 )
                  (  1.0000000  0.0000000  0.0000000 )
                  (  0.0000000  1.0000000  0.0000000 )


      isym = 22     120 deg rotation - cart. axis [-1,1,-1]      

 cryst.   s(22) = (    -1          1          0      )
                  (    -1          0          0      )
                  (    -1          0          1      )

 cart.    s(22) = (  0.0000000  0.0000000  1.0000000 )
                  ( -1.0000000  0.0000000  0.0000000 )
                  (  0.0000000 -1.0000000  0.0000000 )


      isym = 23     120 deg rotation - cart. axis [1,-1,-1]      

 cryst.   s(23) = (     0          0          1      )
                  (     1          0          0      )
                  (     0          1          0      )

 cart.    s(23) = (  0.0000000  0.0000000 -1.0000000 )
                  ( -1.0000000  0.0000000  0.0000000 )
                  (  0.0000000  1.0000000  0.0000000 )


      isym = 24     120 deg rotation - cart. axis [-1,-1,1]      

 cryst.   s(24) = (     1         -1          0      )
                  (     0         -1          1      )
                  (     0         -1          0      )

 cart.    s(24) = (  0.0000000  0.0000000 -1.0000000 )
                  (  1.0000000  0.0000000  0.0000000 )
                  (  0.0000000 -1.0000000  0.0000000 )


      isym = 25     inversion                                    

 cryst.   s(25) = (    -1          0          0      )    f =(  0.2500000 )
                  (     0         -1          0      )       (  0.2500000 )
                  (     0          0         -1      )       (  0.2500000 )

 cart.    s(25) = ( -1.0000000  0.0000000  0.0000000 )    f =( -0.2500000 )
                  (  0.0000000 -1.0000000  0.0000000 )       (  0.2500000 )
                  (  0.0000000  0.0000000 -1.0000000 )       (  0.2500000 )


      isym = 26     inv. 180 deg rotation - cart. axis [0,0,1]   

 cryst.   s(26) = (     0         -1          1      )    f =(  0.2500000 )
                  (    -1          0          1      )       (  0.2500000 )
                  (     0          0          1      )       (  0.2500000 )

 cart.    s(26) = (  1.0000000  0.0000000  0.0000000 )    f =( -0.2500000 )
                  (  0.0000000  1.0000000  0.0000000 )       (  0.2500000 )
                  (  0.0000000  0.0000000 -1.0000000 )       (  0.2500000 )


      isym = 27     inv. 180 deg rotation - cart. axis [0,1,0]   

 cryst.   s(27) = (     1          0          0      )    f =(  0.2500000 )
                  (     1          0         -1      )       (  0.2500000 )
                  (     1         -1          0      )       (  0.2500000 )

 cart.    s(27) = (  1.0000000  0.0000000  0.0000000 )    f =( -0.2500000 )
                  (  0.0000000 -1.0000000  0.0000000 )       (  0.2500000 )
                  (  0.0000000  0.0000000  1.0000000 )       (  0.2500000 )


      isym = 28     inv. 180 deg rotation - cart. axis [1,0,0]   

 cryst.   s(28) = (     0          1         -1      )    f =(  0.2500000 )
                  (     0          1          0      )       (  0.2500000 )
                  (    -1          1          0      )       (  0.2500000 )

 cart.    s(28) = ( -1.0000000  0.0000000  0.0000000 )    f =( -0.2500000 )
                  (  0.0000000  1.0000000  0.0000000 )       (  0.2500000 )
                  (  0.0000000  0.0000000  1.0000000 )       (  0.2500000 )


      isym = 29     inv. 180 deg rotation - cart. axis [1,1,0]   

 cryst.   s(29) = (     0          1          0      )
                  (     1          0          0      )
                  (     0          0          1      )

 cart.    s(29) = (  0.0000000 -1.0000000  0.0000000 )
                  ( -1.0000000  0.0000000  0.0000000 )
                  (  0.0000000  0.0000000  1.0000000 )


      isym = 30     inv. 180 deg rotation - cart. axis [1,-1,0]  

 cryst.   s(30) = (     1          0         -1      )
                  (     0          1         -1      )
                  (     0          0         -1      )

 cart.    s(30) = (  0.0000000  1.0000000  0.0000000 )
                  (  1.0000000  0.0000000  0.0000000 )
                  (  0.0000000  0.0000000  1.0000000 )


      isym = 31     inv.  90 deg rotation - cart. axis [0,0,-1]  

 cryst.   s(31) = (     0         -1          0      )
                  (     0         -1          1      )
                  (     1         -1          0      )

 cart.    s(31) = (  0.0000000 -1.0000000  0.0000000 )
                  (  1.0000000  0.0000000  0.0000000 )
                  (  0.0000000  0.0000000 -1.0000000 )


      isym = 32     inv.  90 deg rotation - cart. axis [0,0,1]   

 cryst.   s(32) = (    -1          0          1      )
                  (    -1          0          0      )
                  (    -1          1          0      )

 cart.    s(32) = (  0.0000000  1.0000000  0.0000000 )
                  ( -1.0000000  0.0000000  0.0000000 )
                  (  0.0000000  0.0000000 -1.0000000 )


      isym = 33     inv. 180 deg rotation - cart. axis [1,0,1]   

 cryst.   s(33) = (     1          0          0      )
                  (     0          0          1      )
                  (     0          1          0      )

 cart.    s(33) = (  0.0000000  0.0000000 -1.0000000 )
                  (  0.0000000  1.0000000  0.0000000 )
                  ( -1.0000000  0.0000000  0.0000000 )


      isym = 34     inv. 180 deg rotation - cart. axis [-1,0,1]  

 cryst.   s(34) = (    -1          0          0      )
                  (    -1          1          0      )
                  (    -1          0          1      )

 cart.    s(34) = (  0.0000000  0.0000000  1.0000000 )
                  (  0.0000000  1.0000000  0.0000000 )
                  (  1.0000000  0.0000000  0.0000000 )


      isym = 35     inv.  90 deg rotation - cart. axis [0,1,0]   

 cryst.   s(35) = (     0         -1          1      )
                  (     1         -1          0      )
                  (     0         -1          0      )

 cart.    s(35) = (  0.0000000  0.0000000 -1.0000000 )
                  (  0.0000000 -1.0000000  0.0000000 )
                  (  1.0000000  0.0000000  0.0000000 )


      isym = 36     inv.  90 deg rotation - cart. axis [0,-1,0]  

 cryst.   s(36) = (     0          1         -1      )
                  (     0          0         -1      )
                  (     1          0         -1      )

 cart.    s(36) = (  0.0000000  0.0000000  1.0000000 )
                  (  0.0000000 -1.0000000  0.0000000 )
                  ( -1.0000000  0.0000000  0.0000000 )


      isym = 37     inv. 180 deg rotation - cart. axis [0,1,1]   

 cryst.   s(37) = (     1         -1          0      )
                  (     0         -1          0      )
                  (     0         -1          1      )

 cart.    s(37) = (  1.0000000  0.0000000  0.0000000 )
                  (  0.0000000  0.0000000 -1.0000000 )
                  (  0.0000000 -1.0000000  0.0000000 )


      isym = 38     inv. 180 deg rotation - cart. axis [0,1,-1]  

 cryst.   s(38) = (     0          0          1      )
                  (     0          1          0      )
                  (     1          0          0      )

 cart.    s(38) = (  1.0000000  0.0000000  0.0000000 )
                  (  0.0000000  0.0000000  1.0000000 )
                  (  0.0000000  1.0000000  0.0000000 )


      isym = 39     inv.  90 deg rotation - cart. axis [-1,0,0]  

 cryst.   s(39) = (     0          0         -1      )
                  (     1          0         -1      )
                  (     0          1         -1      )

 cart.    s(39) = ( -1.0000000  0.0000000  0.0000000 )
                  (  0.0000000  0.0000000 -1.0000000 )
                  (  0.0000000  1.0000000  0.0000000 )


      isym = 40     inv.  90 deg rotation - cart. axis [1,0,0]   

 cryst.   s(40) = (    -1          1          0      )
                  (    -1          0          1      )
                  (    -1          0          0      )

 cart.    s(40) = ( -1.0000000  0.0000000  0.0000000 )
                  (  0.0000000  0.0000000  1.0000000 )
                  (  0.0000000 -1.0000000  0.0000000 )


      isym = 41     inv. 120 deg rotation - cart. axis [-1,-1,-1]

 cryst.   s(41) = (     1          0         -1      )    f =(  0.2500000 )
                  (     1         -1          0      )       (  0.2500000 )
                  (     1          0          0      )       (  0.2500000 )

 cart.    s(41) = (  0.0000000 -1.0000000  0.0000000 )    f =( -0.2500000 )
                  (  0.0000000  0.0000000 -1.0000000 )       (  0.2500000 )
                  ( -1.0000000  0.0000000  0.0000000 )       (  0.2500000 )


      isym = 42     inv. 120 deg rotation - cart. axis [-1,1,1]  

 cryst.   s(42) = (     0         -1          0      )    f =(  0.2500000 )
                  (     0          0         -1      )       (  0.2500000 )
                  (    -1          0          0      )       (  0.2500000 )

 cart.    s(42) = (  0.0000000  1.0000000  0.0000000 )    f =( -0.2500000 )
                  (  0.0000000  0.0000000 -1.0000000 )       (  0.2500000 )
                  (  1.0000000  0.0000000  0.0000000 )       (  0.2500000 )


      isym = 43     inv. 120 deg rotation - cart. axis [1,1,-1]  

 cryst.   s(43) = (    -1          0          1      )    f =(  0.2500000 )
                  (     0          0          1      )       (  0.2500000 )
                  (     0         -1          1      )       (  0.2500000 )

 cart.    s(43) = (  0.0000000 -1.0000000  0.0000000 )    f =( -0.2500000 )
                  (  0.0000000  0.0000000  1.0000000 )       (  0.2500000 )
                  (  1.0000000  0.0000000  0.0000000 )       (  0.2500000 )


      isym = 44     inv. 120 deg rotation - cart. axis [1,-1,1]  

 cryst.   s(44) = (     0          1          0      )    f =(  0.2500000 )
                  (    -1          1          0      )       (  0.2500000 )
                  (     0          1         -1      )       (  0.2500000 )

 cart.    s(44) = (  0.0000000  1.0000000  0.0000000 )    f =( -0.2500000 )
                  (  0.0000000  0.0000000  1.0000000 )       (  0.2500000 )
                  ( -1.0000000  0.0000000  0.0000000 )       (  0.2500000 )


      isym = 45     inv. 120 deg rotation - cart. axis [1,1,1]   

 cryst.   s(45) = (     0          0          1      )    f =(  0.2500000 )
                  (     0         -1          1      )       (  0.2500000 )
                  (    -1          0          1      )       (  0.2500000 )

 cart.    s(45) = (  0.0000000  0.0000000 -1.0000000 )    f =( -0.2500000 )
                  ( -1.0000000  0.0000000  0.0000000 )       (  0.2500000 )
                  (  0.0000000 -1.0000000  0.0000000 )       (  0.2500000 )


      isym = 46     inv. 120 deg rotation - cart. axis [-1,1,-1] 

 cryst.   s(46) = (     1         -1          0      )    f =(  0.2500000 )
                  (     1          0          0      )       (  0.2500000 )
                  (     1          0         -1      )       (  0.2500000 )

 cart.    s(46) = (  0.0000000  0.0000000 -1.0000000 )    f =( -0.2500000 )
                  (  1.0000000  0.0000000  0.0000000 )       (  0.2500000 )
                  (  0.0000000  1.0000000  0.0000000 )       (  0.2500000 )


      isym = 47     inv. 120 deg rotation - cart. axis [1,-1,-1] 

 cryst.   s(47) = (     0          0         -1      )    f =(  0.2500000 )
                  (    -1          0          0      )       (  0.2500000 )
                  (     0         -1          0      )       (  0.2500000 )

 cart.    s(47) = (  0.0000000  0.0000000  1.0000000 )    f =( -0.2500000 )
                  (  1.0000000  0.0000000  0.0000000 )       (  0.2500000 )
                  (  0.0000000 -1.0000000  0.0000000 )       (  0.2500000 )


      isym = 48     inv. 120 deg rotation - cart. axis [-1,-1,1] 

 cryst.   s(48) = (    -1          1          0      )    f =(  0.2500000 )
                  (     0          1         -1      )       (  0.2500000 )
                  (     0          1          0      )       (  0.2500000 )

 cart.    s(48) = (  0.0000000  0.0000000  1.0000000 )    f =( -0.2500000 )
                  ( -1.0000000  0.0000000  0.0000000 )       (  0.2500000 )
                  (  0.0000000  1.0000000  0.0000000 )       (  0.2500000 )


     point group O_h (m-3m) 
     there are 10 classes
     the character table:

       E     8C3   3C2   6C4   6C2'  i     8S6   3s_h  6S4   6s_d 
A_1g   1.00  1.00  1.00  1.00  1.00  1.00  1.00  1.00  1.00  1.00
A_2g   1.00  1.00  1.00 -1.00 -1.00  1.00  1.00  1.00 -1.00 -1.00
E_g    2.00 -1.00  2.00  0.00  0.00  2.00 -1.00  2.00  0.00  0.00
T_1g   3.00  0.00 -1.00  1.00 -1.00  3.00  0.00 -1.00  1.00 -1.00
T_2g   3.00  0.00 -1.00 -1.00  1.00  3.00  0.00 -1.00 -1.00  1.00
A_1u   1.00  1.00  1.00  1.00  1.00 -1.00 -1.00 -1.00 -1.00 -1.00
A_2u   1.00  1.00  1.00 -1.00 -1.00 -1.00 -1.00 -1.00  1.00  1.00
E_u    2.00 -1.00  2.00  0.00  0.00 -2.00  1.00 -2.00  0.00  0.00
T_1u   3.00  0.00 -1.00  1.00 -1.00 -3.00  0.00  1.00 -1.00  1.00
T_2u   3.00  0.00 -1.00 -1.00  1.00 -3.00  0.00  1.00  1.00 -1.00

     the symmetry operations in each class and the name of the first element:

     E        1
          identity                                               
     8C3     17   19   20   18   24   21   22   23
          120 deg rotation - cart. axis [-1,-1,-1]               
     3C2      2    4    3
          180 deg rotation - cart. axis [0,0,1]                  
     6C4      7    8   15   16   12   11
           90 deg rotation - cart. axis [0,0,-1]                 
     6C2'     5    6   14   13   10    9
          180 deg rotation - cart. axis [1,1,0]                  
     i       25
          inversion                                              
     8S6     41   43   44   42   48   45   46   47
          inv. 120 deg rotation - cart. axis [-1,-1,-1]          
     3s_h    26   28   27
          inv. 180 deg rotation - cart. axis [0,0,1]             
     6S4     31   32   39   40   36   35
          inv.  90 deg rotation - cart. axis [0,0,-1]            
     6s_d    29   30   38   37   34   33
          inv. 180 deg rotation - cart. axis [1,1,0]             

   Cartesian axes

     site n.     atom                  positions (alat units)
         1           Si  tau(   1) = (   0.0000000   0.0000000   0.0000000  )
         2           Si  tau(   2) = (   0.2500000   0.2500000   0.2500000  )

   Crystallographic axes

     site n.     atom                  positions (cryst. coord.)
         1           Si  tau(   1) = (  0.0000000  0.0000000  0.0000000  )
         2           Si  tau(   2) = ( -0.2500000  0.7500000 -0.2500000  )

     number of k points=   251  Gaussian smearing, width (Ry)=  0.0010
                       cart. coord. in units 2pi/alat
        k(    1) = (  -1.0000000   0.5000000   0.0000000), wk =   0.0079681
        k(    2) = (  -0.9833333   0.4916667  -0.0000000), wk =   0.0079681
        k(    3) = (  -0.9666667   0.4833333   0.0000000), wk =   0.0079681
        k(    4) = (  -0.9500000   0.4750000  -0.0000000), wk =   0.0079681
        k(    5) = (  -0.9333333   0.4666667   0.0000000), wk =   0.0079681
        k(    6) = (  -0.9166667   0.4583333   0.0000000), wk =   0.0079681
        k(    7) = (  -0.9000000   0.4500000   0.0000000), wk =   0.0079681
        k(    8) = (  -0.8833333   0.4416667   0.0000000), wk =   0.0079681
        k(    9) = (  -0.8666667   0.4333333   0.0000000), wk =   0.0079681
        k(   10) = (  -0.8500000   0.4250000   0.0000000), wk =   0.0079681
        k(   11) = (  -0.8333333   0.4166667   0.0000000), wk =   0.0079681
        k(   12) = (  -0.8166667   0.4083333   0.0000000), wk =   0.0079681
        k(   13) = (  -0.8000000   0.4000000   0.0000000), wk =   0.0079681
        k(   14) = (  -0.7833333   0.3916667   0.0000000), wk =   0.0079681
        k(   15) = (  -0.7666667   0.3833333   0.0000000), wk =   0.0079681
        k(   16) = (  -0.7500000   0.3750000   0.0000000), wk =   0.0079681
        k(   17) = (  -0.7333333   0.3666667   0.0000000), wk =   0.0079681
        k(   18) = (  -0.7166667   0.3583333   0.0000000), wk =   0.0079681
        k(   19) = (  -0.7000000   0.3500000  -0.0000000), wk =   0.0079681
        k(   20) = (  -0.6833333   0.3416667   0.0000000), wk =   0.0079681
        k(   21) = (  -0.6666667   0.3333333   0.0000000), wk =   0.0079681
        k(   22) = (  -0.6500000   0.3250000   0.0000000), wk =   0.0079681
        k(   23) = (  -0.6333333   0.3166667  -0.0000000), wk =   0.0079681
        k(   24) = (  -0.6166667   0.3083333   0.0000000), wk =   0.0079681
        k(   25) = (  -0.6000000   0.3000000   0.0000000), wk =   0.0079681
        k(   26) = (  -0.5833333   0.2916667  -0.0000000), wk =   0.0079681
        k(   27) = (  -0.5666667   0.2833333   0.0000000), wk =   0.0079681
        k(   28) = (  -0.5500000   0.2750000   0.0000000), wk =   0.0079681
        k(   29) = (  -0.5333333   0.2666667   0.0000000), wk =   0.0079681
        k(   30) = (  -0.5166667   0.2583333  -0.0000000), wk =   0.0079681
        k(   31) = (  -0.5000000   0.2500000   0.0000000), wk =   0.0079681
        k(   32) = (  -0.4833333   0.2416667   0.0000000), wk =   0.0079681
        k(   33) = (  -0.4666667   0.2333333   0.0000000), wk =   0.0079681
        k(   34) = (  -0.4500000   0.2250000   0.0000000), wk =   0.0079681
        k(   35) = (  -0.4333333   0.2166667   0.0000000), wk =   0.0079681
        k(   36) = (  -0.4166667   0.2083333   0.0000000), wk =   0.0079681
        k(   37) = (  -0.4000000   0.2000000   0.0000000), wk =   0.0079681
        k(   38) = (  -0.3833333   0.1916667   0.0000000), wk =   0.0079681
        k(   39) = (  -0.3666667   0.1833333   0.0000000), wk =   0.0079681
        k(   40) = (  -0.3500000   0.1750000   0.0000000), wk =   0.0079681
        k(   41) = (  -0.3333333   0.1666667   0.0000000), wk =   0.0079681
        k(   42) = (  -0.3166667   0.1583333   0.0000000), wk =   0.0079681
        k(   43) = (  -0.3000000   0.1500000   0.0000000), wk =   0.0079681
        k(   44) = (  -0.2833333   0.1416667   0.0000000), wk =   0.0079681
        k(   45) = (  -0.2666667   0.1333333   0.0000000), wk =   0.0079681
        k(   46) = (  -0.2500000   0.1250000   0.0000000), wk =   0.0079681
        k(   47) = (  -0.2333333   0.1166667   0.0000000), wk =   0.0079681
        k(   48) = (  -0.2166667   0.1083333   0.0000000), wk =   0.0079681
        k(   49) = (  -0.2000000   0.1000000   0.0000000), wk =   0.0079681
        k(   50) = (  -0.1833333   0.0916667   0.0000000), wk =   0.0079681
        k(   51) = (  -0.1666667   0.0833333   0.0000000), wk =   0.0079681
        k(   52) = (  -0.1500000   0.0750000   0.0000000), wk =   0.0079681
        k(   53) = (  -0.1333333   0.0666667   0.0000000), wk =   0.0079681
        k(   54) = (  -0.1166667   0.0583333   0.0000000), wk =   0.0079681
        k(   55) = (  -0.1000000   0.0500000   0.0000000), wk =   0.0079681
        k(   56) = (  -0.0833333   0.0416667   0.0000000), wk =   0.0079681
        k(   57) = (  -0.0666667   0.0333333   0.0000000), wk =   0.0079681
        k(   58) = (  -0.0500000   0.0250000   0.0000000), wk =   0.0079681
        k(   59) = (  -0.0333333   0.0166667   0.0000000), wk =   0.0079681
        k(   60) = (  -0.0166667   0.0083333   0.0000000), wk =   0.0079681
        k(   61) = (   0.0000000   0.0000000   0.0000000), wk =   0.0079681
        k(   62) = (  -0.0166667   0.0000000   0.0000000), wk =   0.0079681
        k(   63) = (  -0.0333333   0.0000000   0.0000000), wk =   0.0079681
        k(   64) = (  -0.0500000   0.0000000   0.0000000), wk =   0.0079681
        k(   65) = (  -0.0666667   0.0000000   0.0000000), wk =   0.0079681
        k(   66) = (  -0.0833333   0.0000000   0.0000000), wk =   0.0079681
        k(   67) = (  -0.1000000   0.0000000   0.0000000), wk =   0.0079681
        k(   68) = (  -0.1166667   0.0000000   0.0000000), wk =   0.0079681
        k(   69) = (  -0.1333333   0.0000000   0.0000000), wk =   0.0079681
        k(   70) = (  -0.1500000   0.0000000   0.0000000), wk =   0.0079681
        k(   71) = (  -0.1666667   0.0000000   0.0000000), wk =   0.0079681
        k(   72) = (  -0.1833333   0.0000000   0.0000000), wk =   0.0079681
        k(   73) = (  -0.2000000   0.0000000   0.0000000), wk =   0.0079681
        k(   74) = (  -0.2166667   0.0000000   0.0000000), wk =   0.0079681
        k(   75) = (  -0.2333333   0.0000000   0.0000000), wk =   0.0079681
        k(   76) = (  -0.2500000   0.0000000   0.0000000), wk =   0.0079681
        k(   77) = (  -0.2666667   0.0000000   0.0000000), wk =   0.0079681
        k(   78) = (  -0.2833333   0.0000000   0.0000000), wk =   0.0079681
        k(   79) = (  -0.3000000   0.0000000   0.0000000), wk =   0.0079681
        k(   80) = (  -0.3166667   0.0000000   0.0000000), wk =   0.0079681
        k(   81) = (  -0.3333333   0.0000000   0.0000000), wk =   0.0079681
        k(   82) = (  -0.3500000   0.0000000   0.0000000), wk =   0.0079681
        k(   83) = (  -0.3666667   0.0000000   0.0000000), wk =   0.0079681
        k(   84) = (  -0.3833333   0.0000000   0.0000000), wk =   0.0079681
        k(   85) = (  -0.4000000   0.0000000   0.0000000), wk =   0.0079681
        k(   86) = (  -0.4166667   0.0000000   0.0000000), wk =   0.0079681
        k(   87) = (  -0.4333333   0.0000000   0.0000000), wk =   0.0079681
        k(   88) = (  -0.4500000   0.0000000   0.0000000), wk =   0.0079681
        k(   89) = (  -0.4666667   0.0000000   0.0000000), wk =   0.0079681
        k(   90) = (  -0.4833333   0.0000000   0.0000000), wk =   0.0079681
        k(   91) = (  -0.5000000   0.0000000   0.0000000), wk =   0.0079681
        k(   92) = (  -0.5166667   0.0000000   0.0000000), wk =   0.0079681
        k(   93) = (  -0.5333333   0.0000000   0.0000000), wk =   0.0079681
        k(   94) = (  -0.5500000   0.0000000   0.0000000), wk =   0.0079681
        k(   95) = (  -0.5666667   0.0000000   0.0000000), wk =   0.0079681
        k(   96) = (  -0.5833333   0.0000000   0.0000000), wk =   0.0079681
        k(   97) = (  -0.6000000   0.0000000   0.0000000), wk =   0.0079681
        k(   98) = (  -0.6166667   0.0000000   0.0000000), wk =   0.0079681
        k(   99) = (  -0.6333333   0.0000000   0.0000000), wk =   0.0079681
        k(  100) = (  -0.6500000   0.0000000   0.0000000), wk =   0.0079681
        k(  101) = (  -0.6666667   0.0000000   0.0000000), wk =   0.0079681
        k(  102) = (  -0.6833333   0.0000000   0.0000000), wk =   0.0079681
        k(  103) = (  -0.7000000   0.0000000   0.0000000), wk =   0.0079681
        k(  104) = (  -0.7166667   0.0000000   0.0000000), wk =   0.0079681
        k(  105) = (  -0.7333333   0.0000000   0.0000000), wk =   0.0079681
        k(  106) = (  -0.7500000   0.0000000   0.0000000), wk =   0.0079681
        k(  107) = (  -0.7666667   0.0000000   0.0000000), wk =   0.0079681
        k(  108) = (  -0.7833333   0.0000000   0.0000000), wk =   0.0079681
        k(  109) = (  -0.8000000   0.0000000   0.0000000), wk =   0.0079681
        k(  110) = (  -0.8166667   0.0000000   0.0000000), wk =   0.0079681
        k(  111) = (  -0.8333333   0.0000000   0.0000000), wk =   0.0079681
        k(  112) = (  -0.8500000   0.0000000   0.0000000), wk =   0.0079681
        k(  113) = (  -0.8666667   0.0000000   0.0000000), wk =   0.0079681
        k(  114) = (  -0.8833333   0.0000000   0.0000000), wk =   0.0079681
        k(  115) = (  -0.9000000   0.0000000   0.0000000), wk =   0.0079681
        k(  116) = (  -0.9166667   0.0000000   0.0000000), wk =   0.0079681
        k(  117) = (  -0.9333333   0.0000000   0.0000000), wk =   0.0079681
        k(  118) = (  -0.9500000   0.0000000   0.0000000), wk =   0.0079681
        k(  119) = (  -0.9666667   0.0000000   0.0000000), wk =   0.0079681
        k(  120) = (  -0.9833333   0.0000000   0.0000000), wk =   0.0079681
        k(  121) = (  -1.0000000   0.0000000   0.0000000), wk =   0.0079681
        k(  122) = (  -1.0000000   0.0166667   0.0000000), wk =   0.0079681
        k(  123) = (  -1.0000000   0.0333333   0.0000000), wk =   0.0079681
        k(  124) = (  -1.0000000   0.0500000   0.0000000), wk =   0.0079681
        k(  125) = (  -1.0000000   0.0666667   0.0000000), wk =   0.0079681
        k(  126) = (  -1.0000000   0.0833333   0.0000000), wk =   0.0079681
        k(  127) = (  -1.0000000   0.1000000   0.0000000), wk =   0.0079681
        k(  128) = (  -1.0000000   0.1166667   0.0000000), wk =   0.0079681
        k(  129) = (  -1.0000000   0.1333333   0.0000000), wk =   0.0079681
        k(  130) = (  -1.0000000   0.1500000   0.0000000), wk =   0.0079681
        k(  131) = (  -1.0000000   0.1666667   0.0000000), wk =   0.0079681
        k(  132) = (  -1.0000000   0.1833333   0.0000000), wk =   0.0079681
        k(  133) = (  -1.0000000   0.2000000   0.0000000), wk =   0.0079681
        k(  134) = (  -1.0000000   0.2166667   0.0000000), wk =   0.0079681
        k(  135) = (  -1.0000000   0.2333333   0.0000000), wk =   0.0079681
        k(  136) = (  -1.0000000   0.2500000   0.0000000), wk =   0.0079681
        k(  137) = (  -1.0000000   0.2666667   0.0000000), wk =   0.0079681
        k(  138) = (  -1.0000000   0.2833333   0.0000000), wk =   0.0079681
        k(  139) = (  -1.0000000   0.3000000   0.0000000), wk =   0.0079681
        k(  140) = (  -1.0000000   0.3166667   0.0000000), wk =   0.0079681
        k(  141) = (  -1.0000000   0.3333333   0.0000000), wk =   0.0079681
        k(  142) = (  -1.0000000   0.3500000   0.0000000), wk =   0.0079681
        k(  143) = (  -1.0000000   0.3666667   0.0000000), wk =   0.0079681
        k(  144) = (  -1.0000000   0.3833333   0.0000000), wk =   0.0079681
        k(  145) = (  -1.0000000   0.4000000   0.0000000), wk =   0.0079681
        k(  146) = (  -1.0000000   0.4166667   0.0000000), wk =   0.0079681
        k(  147) = (  -1.0000000   0.4333333   0.0000000), wk =   0.0079681
        k(  148) = (  -1.0000000   0.4500000   0.0000000), wk =   0.0079681
        k(  149) = (  -1.0000000   0.4666667   0.0000000), wk =   0.0079681
        k(  150) = (  -1.0000000   0.4833333   0.0000000), wk =   0.0079681
        k(  151) = (  -1.0000000   0.5000000   0.0000000), wk =   0.0079681
        k(  152) = (  -0.9875000   0.5000000   0.0125000), wk =   0.0079681
        k(  153) = (  -0.9750000   0.5000000   0.0250000), wk =   0.0079681
        k(  154) = (  -0.9625000   0.5000000   0.0375000), wk =   0.0079681
        k(  155) = (  -0.9500000   0.5000000   0.0500000), wk =   0.0079681
        k(  156) = (  -0.9375000   0.5000000   0.0625000), wk =   0.0079681
        k(  157) = (  -0.9250000   0.5000000   0.0750000), wk =   0.0079681
        k(  158) = (  -0.9125000   0.5000000   0.0875000), wk =   0.0079681
        k(  159) = (  -0.9000000   0.5000000   0.1000000), wk =   0.0079681
        k(  160) = (  -0.8875000   0.5000000   0.1125000), wk =   0.0079681
        k(  161) = (  -0.8750000   0.5000000   0.1250000), wk =   0.0079681
        k(  162) = (  -0.8625000   0.5000000   0.1375000), wk =   0.0079681
        k(  163) = (  -0.8500000   0.5000000   0.1500000), wk =   0.0079681
        k(  164) = (  -0.8375000   0.5000000   0.1625000), wk =   0.0079681
        k(  165) = (  -0.8250000   0.5000000   0.1750000), wk =   0.0079681
        k(  166) = (  -0.8125000   0.5000000   0.1875000), wk =   0.0079681
        k(  167) = (  -0.8000000   0.5000000   0.2000000), wk =   0.0079681
        k(  168) = (  -0.7875000   0.5000000   0.2125000), wk =   0.0079681
        k(  169) = (  -0.7750000   0.5000000   0.2250000), wk =   0.0079681
        k(  170) = (  -0.7625000   0.5000000   0.2375000), wk =   0.0079681
        k(  171) = (  -0.7500000   0.5000000   0.2500000), wk =   0.0079681
        k(  172) = (  -0.7375000   0.5000000   0.2625000), wk =   0.0079681
        k(  173) = (  -0.7250000   0.5000000   0.2750000), wk =   0.0079681
        k(  174) = (  -0.7125000   0.5000000   0.2875000), wk =   0.0079681
        k(  175) = (  -0.7000000   0.5000000   0.3000000), wk =   0.0079681
        k(  176) = (  -0.6875000   0.5000000   0.3125000), wk =   0.0079681
        k(  177) = (  -0.6750000   0.5000000   0.3250000), wk =   0.0079681
        k(  178) = (  -0.6625000   0.5000000   0.3375000), wk =   0.0079681
        k(  179) = (  -0.6500000   0.5000000   0.3500000), wk =   0.0079681
        k(  180) = (  -0.6375000   0.5000000   0.3625000), wk =   0.0079681
        k(  181) = (  -0.6250000   0.5000000   0.3750000), wk =   0.0079681
        k(  182) = (  -0.6125000   0.5000000   0.3875000), wk =   0.0079681
        k(  183) = (  -0.6000000   0.5000000   0.4000000), wk =   0.0079681
        k(  184) = (  -0.5875000   0.5000000   0.4125000), wk =   0.0079681
        k(  185) = (  -0.5750000   0.5000000   0.4250000), wk =   0.0079681
        k(  186) = (  -0.5625000   0.5000000   0.4375000), wk =   0.0079681
        k(  187) = (  -0.5500000   0.5000000   0.4500000), wk =   0.0079681
        k(  188) = (  -0.5375000   0.5000000   0.4625000), wk =   0.0079681
        k(  189) = (  -0.5250000   0.5000000   0.4750000), wk =   0.0079681
        k(  190) = (  -0.5125000   0.5000000   0.4875000), wk =   0.0079681
        k(  191) = (  -0.5000000   0.5000000   0.5000000), wk =   0.0079681
        k(  192) = (  -0.4916667   0.4916667   0.4916667), wk =   0.0079681
        k(  193) = (  -0.4833333   0.4833333   0.4833333), wk =   0.0079681
        k(  194) = (  -0.4750000   0.4750000   0.4750000), wk =   0.0079681
        k(  195) = (  -0.4666667   0.4666667   0.4666667), wk =   0.0079681
        k(  196) = (  -0.4583333   0.4583333   0.4583333), wk =   0.0079681
        k(  197) = (  -0.4500000   0.4500000   0.4500000), wk =   0.0079681
        k(  198) = (  -0.4416667   0.4416667   0.4416667), wk =   0.0079681
        k(  199) = (  -0.4333333   0.4333333   0.4333333), wk =   0.0079681
        k(  200) = (  -0.4250000   0.4250000   0.4250000), wk =   0.0079681
        k(  201) = (  -0.4166667   0.4166667   0.4166667), wk =   0.0079681
        k(  202) = (  -0.4083333   0.4083333   0.4083333), wk =   0.0079681
        k(  203) = (  -0.4000000   0.4000000   0.4000000), wk =   0.0079681
        k(  204) = (  -0.3916667   0.3916667   0.3916667), wk =   0.0079681
        k(  205) = (  -0.3833333   0.3833333   0.3833333), wk =   0.0079681
        k(  206) = (  -0.3750000   0.3750000   0.3750000), wk =   0.0079681
        k(  207) = (  -0.3666667   0.3666667   0.3666667), wk =   0.0079681
        k(  208) = (  -0.3583333   0.3583333   0.3583333), wk =   0.0079681
        k(  209) = (  -0.3500000   0.3500000   0.3500000), wk =   0.0079681
        k(  210) = (  -0.3416667   0.3416667   0.3416667), wk =   0.0079681
        k(  211) = (  -0.3333333   0.3333333   0.3333333), wk =   0.0079681
        k(  212) = (  -0.3250000   0.3250000   0.3250000), wk =   0.0079681
        k(  213) = (  -0.3166667   0.3166667   0.3166667), wk =   0.0079681
        k(  214) = (  -0.3083333   0.3083333   0.3083333), wk =   0.0079681
        k(  215) = (  -0.3000000   0.3000000   0.3000000), wk =   0.0079681
        k(  216) = (  -0.2916667   0.2916667   0.2916667), wk =   0.0079681
        k(  217) = (  -0.2833333   0.2833333   0.2833333), wk =   0.0079681
        k(  218) = (  -0.2750000   0.2750000   0.2750000), wk =   0.0079681
        k(  219) = (  -0.2666667   0.2666667   0.2666667), wk =   0.0079681
        k(  220) = (  -0.2583333   0.2583333   0.2583333), wk =   0.0079681
        k(  221) = (  -0.2500000   0.2500000   0.2500000), wk =   0.0079681
        k(  222) = (  -0.2416667   0.2416667   0.2416667), wk =   0.0079681
        k(  223) = (  -0.2333333   0.2333333   0.2333333), wk =   0.0079681
        k(  224) = (  -0.2250000   0.2250000   0.2250000), wk =   0.0079681
        k(  225) = (  -0.2166667   0.2166667   0.2166667), wk =   0.0079681
        k(  226) = (  -0.2083333   0.2083333   0.2083333), wk =   0.0079681
        k(  227) = (  -0.2000000   0.2000000   0.2000000), wk =   0.0079681
        k(  228) = (  -0.1916667   0.1916667   0.1916667), wk =   0.0079681
        k(  229) = (  -0.1833333   0.1833333   0.1833333), wk =   0.0079681
        k(  230) = (  -0.1750000   0.1750000   0.1750000), wk =   0.0079681
        k(  231) = (  -0.1666667   0.1666667   0.1666667), wk =   0.0079681
        k(  232) = (  -0.1583333   0.1583333   0.1583333), wk =   0.0079681
        k(  233) = (  -0.1500000   0.1500000   0.1500000), wk =   0.0079681
        k(  234) = (  -0.1416667   0.1416667   0.1416667), wk =   0.0079681
        k(  235) = (  -0.1333333   0.1333333   0.1333333), wk =   0.0079681
        k(  236) = (  -0.1250000   0.1250000   0.1250000), wk =   0.0079681
        k(  237) = (  -0.1166667   0.1166667   0.1166667), wk =   0.0079681
        k(  238) = (  -0.1083333   0.1083333   0.1083333), wk =   0.0079681
        k(  239) = (  -0.1000000   0.1000000   0.1000000), wk =   0.0079681
        k(  240) = (  -0.0916667   0.0916667   0.0916667), wk =   0.0079681
        k(  241) = (  -0.0833333   0.0833333   0.0833333), wk =   0.0079681
        k(  242) = (  -0.0750000   0.0750000   0.0750000), wk =   0.0079681
        k(  243) = (  -0.0666667   0.0666667   0.0666667), wk =   0.0079681
        k(  244) = (  -0.0583333   0.0583333   0.0583333), wk =   0.0079681
        k(  245) = (  -0.0500000   0.0500000   0.0500000), wk =   0.0079681
        k(  246) = (  -0.0416667   0.0416667   0.0416667), wk =   0.0079681
        k(  247) = (  -0.0333333   0.0333333   0.0333333), wk =   0.0079681
        k(  248) = (  -0.0250000   0.0250000   0.0250000), wk =   0.0079681
        k(  249) = (  -0.0166667   0.0166667   0.0166667), wk =   0.0079681
        k(  250) = (  -0.0083333   0.0083333   0.0083333), wk =   0.0079681
        k(  251) = (   0.0000000   0.0000000   0.0000000), wk =   0.0079681

                       cryst. coord.
        k(    1) = (   0.5000000   0.2500000   0.7500000), wk =   0.0079681
        k(    2) = (   0.4916667   0.2458333   0.7375000), wk =   0.0079681
        k(    3) = (   0.4833333   0.2416667   0.7250000), wk =   0.0079681
        k(    4) = (   0.4750000   0.2375000   0.7125000), wk =   0.0079681
        k(    5) = (   0.4666667   0.2333333   0.7000000), wk =   0.0079681
        k(    6) = (   0.4583333   0.2291667   0.6875000), wk =   0.0079681
        k(    7) = (   0.4500000   0.2250000   0.6750000), wk =   0.0079681
        k(    8) = (   0.4416667   0.2208333   0.6625000), wk =   0.0079681
        k(    9) = (   0.4333333   0.2166667   0.6500000), wk =   0.0079681
        k(   10) = (   0.4250000   0.2125000   0.6375000), wk =   0.0079681
        k(   11) = (   0.4166667   0.2083333   0.6250000), wk =   0.0079681
        k(   12) = (   0.4083333   0.2041667   0.6125000), wk =   0.0079681
        k(   13) = (   0.4000000   0.2000000   0.6000000), wk =   0.0079681
        k(   14) = (   0.3916667   0.1958333   0.5875000), wk =   0.0079681
        k(   15) = (   0.3833333   0.1916667   0.5750000), wk =   0.0079681
        k(   16) = (   0.3750000   0.1875000   0.5625000), wk =   0.0079681
        k(   17) = (   0.3666667   0.1833333   0.5500000), wk =   0.0079681
        k(   18) = (   0.3583333   0.1791667   0.5375000), wk =   0.0079681
        k(   19) = (   0.3500000   0.1750000   0.5250000), wk =   0.0079681
        k(   20) = (   0.3416667   0.1708333   0.5125000), wk =   0.0079681
        k(   21) = (   0.3333333   0.1666667   0.5000000), wk =   0.0079681
        k(   22) = (   0.3250000   0.1625000   0.4875000), wk =   0.0079681
        k(   23) = (   0.3166667   0.1583333   0.4750000), wk =   0.0079681
        k(   24) = (   0.3083333   0.1541667   0.4625000), wk =   0.0079681
        k(   25) = (   0.3000000   0.1500000   0.4500000), wk =   0.0079681
        k(   26) = (   0.2916667   0.1458333   0.4375000), wk =   0.0079681
        k(   27) = (   0.2833333   0.1416667   0.4250000), wk =   0.0079681
        k(   28) = (   0.2750000   0.1375000   0.4125000), wk =   0.0079681
        k(   29) = (   0.2666667   0.1333333   0.4000000), wk =   0.0079681
        k(   30) = (   0.2583333   0.1291667   0.3875000), wk =   0.0079681
        k(   31) = (   0.2500000   0.1250000   0.3750000), wk =   0.0079681
        k(   32) = (   0.2416667   0.1208333   0.3625000), wk =   0.0079681
        k(   33) = (   0.2333333   0.1166667   0.3500000), wk =   0.0079681
        k(   34) = (   0.2250000   0.1125000   0.3375000), wk =   0.0079681
        k(   35) = (   0.2166667   0.1083333   0.3250000), wk =   0.0079681
        k(   36) = (   0.2083333   0.1041667   0.3125000), wk =   0.0079681
        k(   37) = (   0.2000000   0.1000000   0.3000000), wk =   0.0079681
        k(   38) = (   0.1916667   0.0958333   0.2875000), wk =   0.0079681
        k(   39) = (   0.1833333   0.0916667   0.2750000), wk =   0.0079681
        k(   40) = (   0.1750000   0.0875000   0.2625000), wk =   0.0079681
        k(   41) = (   0.1666667   0.0833333   0.2500000), wk =   0.0079681
        k(   42) = (   0.1583333   0.0791667   0.2375000), wk =   0.0079681
        k(   43) = (   0.1500000   0.0750000   0.2250000), wk =   0.0079681
        k(   44) = (   0.1416667   0.0708333   0.2125000), wk =   0.0079681
        k(   45) = (   0.1333333   0.0666667   0.2000000), wk =   0.0079681
        k(   46) = (   0.1250000   0.0625000   0.1875000), wk =   0.0079681
        k(   47) = (   0.1166667   0.0583333   0.1750000), wk =   0.0079681
        k(   48) = (   0.1083333   0.0541667   0.1625000), wk =   0.0079681
        k(   49) = (   0.1000000   0.0500000   0.1500000), wk =   0.0079681
        k(   50) = (   0.0916667   0.0458333   0.1375000), wk =   0.0079681
        k(   51) = (   0.0833333   0.0416667   0.1250000), wk =   0.0079681
        k(   52) = (   0.0750000   0.0375000   0.1125000), wk =   0.0079681
        k(   53) = (   0.0666667   0.0333333   0.1000000), wk =   0.0079681
        k(   54) = (   0.0583333   0.0291667   0.0875000), wk =   0.0079681
        k(   55) = (   0.0500000   0.0250000   0.0750000), wk =   0.0079681
        k(   56) = (   0.0416667   0.0208333   0.0625000), wk =   0.0079681
        k(   57) = (   0.0333333   0.0166667   0.0500000), wk =   0.0079681
        k(   58) = (   0.0250000   0.0125000   0.0375000), wk =   0.0079681
        k(   59) = (   0.0166667   0.0083333   0.0250000), wk =   0.0079681
        k(   60) = (   0.0083333   0.0041667   0.0125000), wk =   0.0079681
        k(   61) = (   0.0000000   0.0000000   0.0000000), wk =   0.0079681
        k(   62) = (   0.0083333   0.0000000   0.0083333), wk =   0.0079681
        k(   63) = (   0.0166667   0.0000000   0.0166667), wk =   0.0079681
        k(   64) = (   0.0250000   0.0000000   0.0250000), wk =   0.0079681
        k(   65) = (   0.0333333   0.0000000   0.0333333), wk =   0.0079681
        k(   66) = (   0.0416667   0.0000000   0.0416667), wk =   0.0079681
        k(   67) = (   0.0500000   0.0000000   0.0500000), wk =   0.0079681
        k(   68) = (   0.0583333   0.0000000   0.0583333), wk =   0.0079681
        k(   69) = (   0.0666667   0.0000000   0.0666667), wk =   0.0079681
        k(   70) = (   0.0750000   0.0000000   0.0750000), wk =   0.0079681
        k(   71) = (   0.0833333   0.0000000   0.0833333), wk =   0.0079681
        k(   72) = (   0.0916667   0.0000000   0.0916667), wk =   0.0079681
        k(   73) = (   0.1000000   0.0000000   0.1000000), wk =   0.0079681
        k(   74) = (   0.1083333   0.0000000   0.1083333), wk =   0.0079681
        k(   75) = (   0.1166667   0.0000000   0.1166667), wk =   0.0079681
        k(   76) = (   0.1250000   0.0000000   0.1250000), wk =   0.0079681
        k(   77) = (   0.1333333   0.0000000   0.1333333), wk =   0.0079681
        k(   78) = (   0.1416667   0.0000000   0.1416667), wk =   0.0079681
        k(   79) = (   0.1500000   0.0000000   0.1500000), wk =   0.0079681
        k(   80) = (   0.1583333   0.0000000   0.1583333), wk =   0.0079681
        k(   81) = (   0.1666667   0.0000000   0.1666667), wk =   0.0079681
        k(   82) = (   0.1750000   0.0000000   0.1750000), wk =   0.0079681
        k(   83) = (   0.1833333   0.0000000   0.1833333), wk =   0.0079681
        k(   84) = (   0.1916667   0.0000000   0.1916667), wk =   0.0079681
        k(   85) = (   0.2000000   0.0000000   0.2000000), wk =   0.0079681
        k(   86) = (   0.2083333   0.0000000   0.2083333), wk =   0.0079681
        k(   87) = (   0.2166667   0.0000000   0.2166667), wk =   0.0079681
        k(   88) = (   0.2250000   0.0000000   0.2250000), wk =   0.0079681
        k(   89) = (   0.2333333   0.0000000   0.2333333), wk =   0.0079681
        k(   90) = (   0.2416667   0.0000000   0.2416667), wk =   0.0079681
        k(   91) = (   0.2500000   0.0000000   0.2500000), wk =   0.0079681
        k(   92) = (   0.2583333   0.0000000   0.2583333), wk =   0.0079681
        k(   93) = (   0.2666667   0.0000000   0.2666667), wk =   0.0079681
        k(   94) = (   0.2750000   0.0000000   0.2750000), wk =   0.0079681
        k(   95) = (   0.2833333   0.0000000   0.2833333), wk =   0.0079681
        k(   96) = (   0.2916667   0.0000000   0.2916667), wk =   0.0079681
        k(   97) = (   0.3000000   0.0000000   0.3000000), wk =   0.0079681
        k(   98) = (   0.3083333   0.0000000   0.3083333), wk =   0.0079681
        k(   99) = (   0.3166667   0.0000000   0.3166667), wk =   0.0079681
        k(  100) = (   0.3250000   0.0000000   0.3250000), wk =   0.0079681
        k(  101) = (   0.3333333   0.0000000   0.3333333), wk =   0.0079681
        k(  102) = (   0.3416667   0.0000000   0.3416667), wk =   0.0079681
        k(  103) = (   0.3500000   0.0000000   0.3500000), wk =   0.0079681
        k(  104) = (   0.3583333   0.0000000   0.3583333), wk =   0.0079681
        k(  105) = (   0.3666667   0.0000000   0.3666667), wk =   0.0079681
        k(  106) = (   0.3750000   0.0000000   0.3750000), wk =   0.0079681
        k(  107) = (   0.3833333   0.0000000   0.3833333), wk =   0.0079681
        k(  108) = (   0.3916667   0.0000000   0.3916667), wk =   0.0079681
        k(  109) = (   0.4000000   0.0000000   0.4000000), wk =   0.0079681
        k(  110) = (   0.4083333   0.0000000   0.4083333), wk =   0.0079681
        k(  111) = (   0.4166667   0.0000000   0.4166667), wk =   0.0079681
        k(  112) = (   0.4250000   0.0000000   0.4250000), wk =   0.0079681
        k(  113) = (   0.4333333   0.0000000   0.4333333), wk =   0.0079681
        k(  114) = (   0.4416667   0.0000000   0.4416667), wk =   0.0079681
        k(  115) = (   0.4500000   0.0000000   0.4500000), wk =   0.0079681
        k(  116) = (   0.4583333   0.0000000   0.4583333), wk =   0.0079681
        k(  117) = (   0.4666667   0.0000000   0.4666667), wk =   0.0079681
        k(  118) = (   0.4750000   0.0000000   0.4750000), wk =   0.0079681
        k(  119) = (   0.4833333   0.0000000   0.4833333), wk =   0.0079681
        k(  120) = (   0.4916667   0.0000000   0.4916667), wk =   0.0079681
        k(  121) = (   0.5000000   0.0000000   0.5000000), wk =   0.0079681
        k(  122) = (   0.5000000   0.0083333   0.5083333), wk =   0.0079681
        k(  123) = (   0.5000000   0.0166667   0.5166667), wk =   0.0079681
        k(  124) = (   0.5000000   0.0250000   0.5250000), wk =   0.0079681
        k(  125) = (   0.5000000   0.0333333   0.5333333), wk =   0.0079681
        k(  126) = (   0.5000000   0.0416667   0.5416667), wk =   0.0079681
        k(  127) = (   0.5000000   0.0500000   0.5500000), wk =   0.0079681
        k(  128) = (   0.5000000   0.0583333   0.5583333), wk =   0.0079681
        k(  129) = (   0.5000000   0.0666667   0.5666667), wk =   0.0079681
        k(  130) = (   0.5000000   0.0750000   0.5750000), wk =   0.0079681
        k(  131) = (   0.5000000   0.0833333   0.5833333), wk =   0.0079681
        k(  132) = (   0.5000000   0.0916667   0.5916667), wk =   0.0079681
        k(  133) = (   0.5000000   0.1000000   0.6000000), wk =   0.0079681
        k(  134) = (   0.5000000   0.1083333   0.6083333), wk =   0.0079681
        k(  135) = (   0.5000000   0.1166667   0.6166667), wk =   0.0079681
        k(  136) = (   0.5000000   0.1250000   0.6250000), wk =   0.0079681
        k(  137) = (   0.5000000   0.1333333   0.6333333), wk =   0.0079681
        k(  138) = (   0.5000000   0.1416667   0.6416667), wk =   0.0079681
        k(  139) = (   0.5000000   0.1500000   0.6500000), wk =   0.0079681
        k(  140) = (   0.5000000   0.1583333   0.6583333), wk =   0.0079681
        k(  141) = (   0.5000000   0.1666667   0.6666667), wk =   0.0079681
        k(  142) = (   0.5000000   0.1750000   0.6750000), wk =   0.0079681
        k(  143) = (   0.5000000   0.1833333   0.6833333), wk =   0.0079681
        k(  144) = (   0.5000000   0.1916667   0.6916667), wk =   0.0079681
        k(  145) = (   0.5000000   0.2000000   0.7000000), wk =   0.0079681
        k(  146) = (   0.5000000   0.2083333   0.7083333), wk =   0.0079681
        k(  147) = (   0.5000000   0.2166667   0.7166667), wk =   0.0079681
        k(  148) = (   0.5000000   0.2250000   0.7250000), wk =   0.0079681
        k(  149) = (   0.5000000   0.2333333   0.7333333), wk =   0.0079681
        k(  150) = (   0.5000000   0.2416667   0.7416667), wk =   0.0079681
        k(  151) = (   0.5000000   0.2500000   0.7500000), wk =   0.0079681
        k(  152) = (   0.5000000   0.2562500   0.7437500), wk =   0.0079681
        k(  153) = (   0.5000000   0.2625000   0.7375000), wk =   0.0079681
        k(  154) = (   0.5000000   0.2687500   0.7312500), wk =   0.0079681
        k(  155) = (   0.5000000   0.2750000   0.7250000), wk =   0.0079681
        k(  156) = (   0.5000000   0.2812500   0.7187500), wk =   0.0079681
        k(  157) = (   0.5000000   0.2875000   0.7125000), wk =   0.0079681
        k(  158) = (   0.5000000   0.2937500   0.7062500), wk =   0.0079681
        k(  159) = (   0.5000000   0.3000000   0.7000000), wk =   0.0079681
        k(  160) = (   0.5000000   0.3062500   0.6937500), wk =   0.0079681
        k(  161) = (   0.5000000   0.3125000   0.6875000), wk =   0.0079681
        k(  162) = (   0.5000000   0.3187500   0.6812500), wk =   0.0079681
        k(  163) = (   0.5000000   0.3250000   0.6750000), wk =   0.0079681
        k(  164) = (   0.5000000   0.3312500   0.6687500), wk =   0.0079681
        k(  165) = (   0.5000000   0.3375000   0.6625000), wk =   0.0079681
        k(  166) = (   0.5000000   0.3437500   0.6562500), wk =   0.0079681
        k(  167) = (   0.5000000   0.3500000   0.6500000), wk =   0.0079681
        k(  168) = (   0.5000000   0.3562500   0.6437500), wk =   0.0079681
        k(  169) = (   0.5000000   0.3625000   0.6375000), wk =   0.0079681
        k(  170) = (   0.5000000   0.3687500   0.6312500), wk =   0.0079681
        k(  171) = (   0.5000000   0.3750000   0.6250000), wk =   0.0079681
        k(  172) = (   0.5000000   0.3812500   0.6187500), wk =   0.0079681
        k(  173) = (   0.5000000   0.3875000   0.6125000), wk =   0.0079681
        k(  174) = (   0.5000000   0.3937500   0.6062500), wk =   0.0079681
        k(  175) = (   0.5000000   0.4000000   0.6000000), wk =   0.0079681
        k(  176) = (   0.5000000   0.4062500   0.5937500), wk =   0.0079681
        k(  177) = (   0.5000000   0.4125000   0.5875000), wk =   0.0079681
        k(  178) = (   0.5000000   0.4187500   0.5812500), wk =   0.0079681
        k(  179) = (   0.5000000   0.4250000   0.5750000), wk =   0.0079681
        k(  180) = (   0.5000000   0.4312500   0.5687500), wk =   0.0079681
        k(  181) = (   0.5000000   0.4375000   0.5625000), wk =   0.0079681
        k(  182) = (   0.5000000   0.4437500   0.5562500), wk =   0.0079681
        k(  183) = (   0.5000000   0.4500000   0.5500000), wk =   0.0079681
        k(  184) = (   0.5000000   0.4562500   0.5437500), wk =   0.0079681
        k(  185) = (   0.5000000   0.4625000   0.5375000), wk =   0.0079681
        k(  186) = (   0.5000000   0.4687500   0.5312500), wk =   0.0079681
        k(  187) = (   0.5000000   0.4750000   0.5250000), wk =   0.0079681
        k(  188) = (   0.5000000   0.4812500   0.5187500), wk =   0.0079681
        k(  189) = (   0.5000000   0.4875000   0.5125000), wk =   0.0079681
        k(  190) = (   0.5000000   0.4937500   0.5062500), wk =   0.0079681
        k(  191) = (   0.5000000   0.5000000   0.5000000), wk =   0.0079681
        k(  192) = (   0.4916667   0.4916667   0.4916667), wk =   0.0079681
        k(  193) = (   0.4833333   0.4833333   0.4833333), wk =   0.0079681
        k(  194) = (   0.4750000   0.4750000   0.4750000), wk =   0.0079681
        k(  195) = (   0.4666667   0.4666667   0.4666667), wk =   0.0079681
        k(  196) = (   0.4583333   0.4583333   0.4583333), wk =   0.0079681
        k(  197) = (   0.4500000   0.4500000   0.4500000), wk =   0.0079681
        k(  198) = (   0.4416667   0.4416667   0.4416667), wk =   0.0079681
        k(  199) = (   0.4333333   0.4333333   0.4333333), wk =   0.0079681
        k(  200) = (   0.4250000   0.4250000   0.4250000), wk =   0.0079681
        k(  201) = (   0.4166667   0.4166667   0.4166667), wk =   0.0079681
        k(  202) = (   0.4083333   0.4083333   0.4083333), wk =   0.0079681
        k(  203) = (   0.4000000   0.4000000   0.4000000), wk =   0.0079681
        k(  204) = (   0.3916667   0.3916667   0.3916667), wk =   0.0079681
        k(  205) = (   0.3833333   0.3833333   0.3833333), wk =   0.0079681
        k(  206) = (   0.3750000   0.3750000   0.3750000), wk =   0.0079681
        k(  207) = (   0.3666667   0.3666667   0.3666667), wk =   0.0079681
        k(  208) = (   0.3583333   0.3583333   0.3583333), wk =   0.0079681
        k(  209) = (   0.3500000   0.3500000   0.3500000), wk =   0.0079681
        k(  210) = (   0.3416667   0.3416667   0.3416667), wk =   0.0079681
        k(  211) = (   0.3333333   0.3333333   0.3333333), wk =   0.0079681
        k(  212) = (   0.3250000   0.3250000   0.3250000), wk =   0.0079681
        k(  213) = (   0.3166667   0.3166667   0.3166667), wk =   0.0079681
        k(  214) = (   0.3083333   0.3083333   0.3083333), wk =   0.0079681
        k(  215) = (   0.3000000   0.3000000   0.3000000), wk =   0.0079681
        k(  216) = (   0.2916667   0.2916667   0.2916667), wk =   0.0079681
        k(  217) = (   0.2833333   0.2833333   0.2833333), wk =   0.0079681
        k(  218) = (   0.2750000   0.2750000   0.2750000), wk =   0.0079681
        k(  219) = (   0.2666667   0.2666667   0.2666667), wk =   0.0079681
        k(  220) = (   0.2583333   0.2583333   0.2583333), wk =   0.0079681
        k(  221) = (   0.2500000   0.2500000   0.2500000), wk =   0.0079681
        k(  222) = (   0.2416667   0.2416667   0.2416667), wk =   0.0079681
        k(  223) = (   0.2333333   0.2333333   0.2333333), wk =   0.0079681
        k(  224) = (   0.2250000   0.2250000   0.2250000), wk =   0.0079681
        k(  225) = (   0.2166667   0.2166667   0.2166667), wk =   0.0079681
        k(  226) = (   0.2083333   0.2083333   0.2083333), wk =   0.0079681
        k(  227) = (   0.2000000   0.2000000   0.2000000), wk =   0.0079681
        k(  228) = (   0.1916667   0.1916667   0.1916667), wk =   0.0079681
        k(  229) = (   0.1833333   0.1833333   0.1833333), wk =   0.0079681
        k(  230) = (   0.1750000   0.1750000   0.1750000), wk =   0.0079681
        k(  231) = (   0.1666667   0.1666667   0.1666667), wk =   0.0079681
        k(  232) = (   0.1583333   0.1583333   0.1583333), wk =   0.0079681
        k(  233) = (   0.1500000   0.1500000   0.1500000), wk =   0.0079681
        k(  234) = (   0.1416667   0.1416667   0.1416667), wk =   0.0079681
        k(  235) = (   0.1333333   0.1333333   0.1333333), wk =   0.0079681
        k(  236) = (   0.1250000   0.1250000   0.1250000), wk =   0.0079681
        k(  237) = (   0.1166667   0.1166667   0.1166667), wk =   0.0079681
        k(  238) = (   0.1083333   0.1083333   0.1083333), wk =   0.0079681
        k(  239) = (   0.1000000   0.1000000   0.1000000), wk =   0.0079681
        k(  240) = (   0.0916667   0.0916667   0.0916667), wk =   0.0079681
        k(  241) = (   0.0833333   0.0833333   0.0833333), wk =   0.0079681
        k(  242) = (   0.0750000   0.0750000   0.0750000), wk =   0.0079681
        k(  243) = (   0.0666667   0.0666667   0.0666667), wk =   0.0079681
        k(  244) = (   0.0583333   0.0583333   0.0583333), wk =   0.0079681
        k(  245) = (   0.0500000   0.0500000   0.0500000), wk =   0.0079681
        k(  246) = (   0.0416667   0.0416667   0.0416667), wk =   0.0079681
        k(  247) = (   0.0333333   0.0333333   0.0333333), wk =   0.0079681
        k(  248) = (   0.0250000   0.0250000   0.0250000), wk =   0.0079681
        k(  249) = (   0.0166667   0.0166667   0.0166667), wk =   0.0079681
        k(  250) = (   0.0083333   0.0083333   0.0083333), wk =   0.0079681
        k(  251) = (   0.0000000   0.0000000   0.0000000), wk =   0.0079681

     Dense  grid:    23589 G-vectors     FFT dimensions: (  48,  48,  48)

     Smooth grid:     9257 G-vectors     FFT dimensions: (  32,  32,  32)

     Dynamical RAM for                 wfc:       0.09 MB

     Dynamical RAM for     wfc (w. buffer):       0.09 MB

     Dynamical RAM for           str. fact:       0.18 MB

     Dynamical RAM for           local pot:       0.00 MB

     Dynamical RAM for          nlocal pot:       0.32 MB

     Dynamical RAM for                qrad:       1.39 MB

     Dynamical RAM for          rho,v,vnew:       1.81 MB

     Dynamical RAM for           G-vectors:       0.71 MB

     Dynamical RAM for          h,s,v(r/c):       0.02 MB

     Dynamical RAM for          <psi|beta>:       0.01 MB

     Dynamical RAM for                 psi:       0.18 MB

     Dynamical RAM for                hpsi:       0.18 MB

     Dynamical RAM for                spsi:       0.18 MB

     Dynamical RAM for      wfcinit/wfcrot:       0.18 MB

     Dynamical RAM for           addusdens:      17.01 MB

     Estimated static dynamical RAM per process >       6.96 MB

     Estimated max dynamical RAM per process >      23.97 MB

     Estimated total dynamical RAM >      95.87 MB

     The potential is recalculated from file :
     ./si.save/charge-density

     Starting wfcs are    8 randomized atomic wfcs +    2 random wfcs

     Band Structure Calculation
     Davidson diagonalization with overlap

     Computing kpt #:     1  of   126 on this pool
     total cpu time spent up to now is        0.6 secs

     Computing kpt #:     2  of   126 on this pool
     total cpu time spent up to now is        0.7 secs

     Computing kpt #:     3  of   126 on this pool
     total cpu time spent up to now is        0.9 secs

     Computing kpt #:     4  of   126 on this pool
     total cpu time spent up to now is        1.0 secs

     Computing kpt #:     5  of   126 on this pool
     total cpu time spent up to now is        1.2 secs

     Computing kpt #:     6  of   126 on this pool
     total cpu time spent up to now is        1.3 secs

     Computing kpt #:     7  of   126 on this pool
     total cpu time spent up to now is        1.4 secs

     Computing kpt #:     8  of   126 on this pool
     total cpu time spent up to now is        1.6 secs

     Computing kpt #:     9  of   126 on this pool
     total cpu time spent up to now is        1.7 secs

     Computing kpt #:    10  of   126 on this pool
     total cpu time spent up to now is        1.8 secs

     Computing kpt #:    11  of   126 on this pool
     total cpu time spent up to now is        1.9 secs

     Computing kpt #:    12  of   126 on this pool
     total cpu time spent up to now is        2.1 secs

     Computing kpt #:    13  of   126 on this pool
     total cpu time spent up to now is        2.2 secs

     Computing kpt #:    14  of   126 on this pool
     total cpu time spent up to now is        2.2 secs

     Computing kpt #:    15  of   126 on this pool
     total cpu time spent up to now is        2.3 secs

     Computing kpt #:    16  of   126 on this pool
     total cpu time spent up to now is        2.4 secs

     Computing kpt #:    17  of   126 on this pool
     total cpu time spent up to now is        2.5 secs

     Computing kpt #:    18  of   126 on this pool
     total cpu time spent up to now is        2.6 secs

     Computing kpt #:    19  of   126 on this pool
     total cpu time spent up to now is        2.7 secs

     Computing kpt #:    20  of   126 on this pool
     total cpu time spent up to now is        2.8 secs

     Computing kpt #:    21  of   126 on this pool
     total cpu time spent up to now is        2.9 secs

     Computing kpt #:    22  of   126 on this pool
     total cpu time spent up to now is        3.0 secs

     Computing kpt #:    23  of   126 on this pool
     total cpu time spent up to now is        3.1 secs

     Computing kpt #:    24  of   126 on this pool
     total cpu time spent up to now is        3.2 secs

     Computing kpt #:    25  of   126 on this pool
     total cpu time spent up to now is        3.3 secs

     Computing kpt #:    26  of   126 on this pool
     total cpu time spent up to now is        3.4 secs

     Computing kpt #:    27  of   126 on this pool
     total cpu time spent up to now is        3.5 secs

     Computing kpt #:    28  of   126 on this pool
     total cpu time spent up to now is        3.7 secs

     Computing kpt #:    29  of   126 on this pool
     total cpu time spent up to now is        3.9 secs

     Computing kpt #:    30  of   126 on this pool
     total cpu time spent up to now is        4.0 secs

     Computing kpt #:    31  of   126 on this pool
     total cpu time spent up to now is        4.2 secs

     Computing kpt #:    32  of   126 on this pool
     total cpu time spent up to now is        4.3 secs

     Computing kpt #:    33  of   126 on this pool
     total cpu time spent up to now is        4.4 secs

     Computing kpt #:    34  of   126 on this pool
     total cpu time spent up to now is        4.5 secs

     Computing kpt #:    35  of   126 on this pool
     total cpu time spent up to now is        4.7 secs

     Computing kpt #:    36  of   126 on this pool
     total cpu time spent up to now is        4.8 secs

     Computing kpt #:    37  of   126 on this pool
     total cpu time spent up to now is        4.9 secs

     Computing kpt #:    38  of   126 on this pool
     total cpu time spent up to now is        5.0 secs

     Computing kpt #:    39  of   126 on this pool
     total cpu time spent up to now is        5.1 secs

     Computing kpt #:    40  of   126 on this pool
     total cpu time spent up to now is        5.2 secs

     Computing kpt #:    41  of   126 on this pool
     total cpu time spent up to now is        5.3 secs

     Computing kpt #:    42  of   126 on this pool
     total cpu time spent up to now is        5.3 secs

     Computing kpt #:    43  of   126 on this pool
     total cpu time spent up to now is        5.4 secs

     Computing kpt #:    44  of   126 on this pool
     total cpu time spent up to now is        5.5 secs

     Computing kpt #:    45  of   126 on this pool
     total cpu time spent up to now is        5.6 secs

     Computing kpt #:    46  of   126 on this pool
     total cpu time spent up to now is        5.7 secs

     Computing kpt #:    47  of   126 on this pool
     total cpu time spent up to now is        5.8 secs

     Computing kpt #:    48  of   126 on this pool
     total cpu time spent up to now is        5.9 secs

     Computing kpt #:    49  of   126 on this pool
     total cpu time spent up to now is        6.0 secs

     Computing kpt #:    50  of   126 on this pool
     total cpu time spent up to now is        6.1 secs

     Computing kpt #:    51  of   126 on this pool
     total cpu time spent up to now is        6.2 secs

     Computing kpt #:    52  of   126 on this pool
     total cpu time spent up to now is        6.3 secs

     Computing kpt #:    53  of   126 on this pool
     total cpu time spent up to now is        6.4 secs

     Computing kpt #:    54  of   126 on this pool
     total cpu time spent up to now is        6.5 secs

     Computing kpt #:    55  of   126 on this pool
     total cpu time spent up to now is        6.6 secs

     Computing kpt #:    56  of   126 on this pool
     total cpu time spent up to now is        6.7 secs

     Computing kpt #:    57  of   126 on this pool
     total cpu time spent up to now is        6.8 secs

     Computing kpt #:    58  of   126 on this pool
     total cpu time spent up to now is        6.9 secs

     Computing kpt #:    59  of   126 on this pool
     total cpu time spent up to now is        7.0 secs

     Computing kpt #:    60  of   126 on this pool
     total cpu time spent up to now is        7.2 secs

     Computing kpt #:    61  of   126 on this pool
     total cpu time spent up to now is        7.3 secs

     Computing kpt #:    62  of   126 on this pool
     total cpu time spent up to now is        7.4 secs

     Computing kpt #:    63  of   126 on this pool
     total cpu time spent up to now is        7.5 secs

     Computing kpt #:    64  of   126 on this pool
     total cpu time spent up to now is        7.6 secs

     Computing kpt #:    65  of   126 on this pool
     total cpu time spent up to now is        7.7 secs

     Computing kpt #:    66  of   126 on this pool
     total cpu time spent up to now is        7.8 secs

     Computing kpt #:    67  of   126 on this pool
     total cpu time spent up to now is        7.9 secs

     Computing kpt #:    68  of   126 on this pool
     total cpu time spent up to now is        8.0 secs

     Computing kpt #:    69  of   126 on this pool
     total cpu time spent up to now is        8.1 secs

     Computing kpt #:    70  of   126 on this pool
     total cpu time spent up to now is        8.2 secs

     Computing kpt #:    71  of   126 on this pool
     total cpu time spent up to now is        8.3 secs

     Computing kpt #:    72  of   126 on this pool
     total cpu time spent up to now is        8.4 secs

     Computing kpt #:    73  of   126 on this pool
     total cpu time spent up to now is        8.5 secs

     Computing kpt #:    74  of   126 on this pool
     total cpu time spent up to now is        8.6 secs

     Computing kpt #:    75  of   126 on this pool
     total cpu time spent up to now is        8.7 secs

     Computing kpt #:    76  of   126 on this pool
     total cpu time spent up to now is        8.8 secs

     Computing kpt #:    77  of   126 on this pool
     total cpu time spent up to now is        8.9 secs

     Computing kpt #:    78  of   126 on this pool
     total cpu time spent up to now is        9.0 secs

     Computing kpt #:    79  of   126 on this pool
     total cpu time spent up to now is        9.1 secs

     Computing kpt #:    80  of   126 on this pool
     total cpu time spent up to now is        9.2 secs

     Computing kpt #:    81  of   126 on this pool
     total cpu time spent up to now is        9.3 secs

     Computing kpt #:    82  of   126 on this pool
     total cpu time spent up to now is        9.4 secs

     Computing kpt #:    83  of   126 on this pool
     total cpu time spent up to now is        9.5 secs

     Computing kpt #:    84  of   126 on this pool
     total cpu time spent up to now is        9.6 secs

     Computing kpt #:    85  of   126 on this pool
     total cpu time spent up to now is        9.7 secs

     Computing kpt #:    86  of   126 on this pool
     total cpu time spent up to now is        9.8 secs

     Computing kpt #:    87  of   126 on this pool
     total cpu time spent up to now is        9.9 secs

     Computing kpt #:    88  of   126 on this pool
     total cpu time spent up to now is       10.0 secs

     Computing kpt #:    89  of   126 on this pool
     total cpu time spent up to now is       10.1 secs

     Computing kpt #:    90  of   126 on this pool
     total cpu time spent up to now is       10.2 secs

     Computing kpt #:    91  of   126 on this pool
     total cpu time spent up to now is       10.3 secs

     Computing kpt #:    92  of   126 on this pool
     total cpu time spent up to now is       10.4 secs

     Computing kpt #:    93  of   126 on this pool
     total cpu time spent up to now is       10.4 secs

     Computing kpt #:    94  of   126 on this pool
     total cpu time spent up to now is       10.5 secs

     Computing kpt #:    95  of   126 on this pool
     total cpu time spent up to now is       10.6 secs

     Computing kpt #:    96  of   126 on this pool
     total cpu time spent up to now is       10.7 secs

     Computing kpt #:    97  of   126 on this pool
     total cpu time spent up to now is       10.8 secs

     Computing kpt #:    98  of   126 on this pool
     total cpu time spent up to now is       10.9 secs

     Computing kpt #:    99  of   126 on this pool
     total cpu time spent up to now is       11.0 secs

     Computing kpt #:   100  of   126 on this pool
     total cpu time spent up to now is       11.1 secs

     Computing kpt #:   101  of   126 on this pool
     total cpu time spent up to now is       11.2 secs

     Computing kpt #:   102  of   126 on this pool
     total cpu time spent up to now is       11.3 secs

     Computing kpt #:   103  of   126 on this pool
     total cpu time spent up to now is       11.4 secs

     Computing kpt #:   104  of   126 on this pool
     total cpu time spent up to now is       11.4 secs

     Computing kpt #:   105  of   126 on this pool
     total cpu time spent up to now is       11.5 secs

     Computing kpt #:   106  of   126 on this pool
     total cpu time spent up to now is       11.6 secs

     Computing kpt #:   107  of   126 on this pool
     total cpu time spent up to now is       11.7 secs

     Computing kpt #:   108  of   126 on this pool
     total cpu time spent up to now is       11.8 secs

     Computing kpt #:   109  of   126 on this pool
     total cpu time spent up to now is       11.9 secs

     Computing kpt #:   110  of   126 on this pool
     total cpu time spent up to now is       12.0 secs

     Computing kpt #:   111  of   126 on this pool
     total cpu time spent up to now is       12.1 secs

     Computing kpt #:   112  of   126 on this pool
     total cpu time spent up to now is       12.2 secs

[...]
    16.7794  16.7794

          k =-1.0000 0.3833 0.0000 (  1158 PWs)   bands (ev):

    -1.4751  -1.4751   2.4541   2.4541   9.4640   9.4640  12.3371  12.3371
    16.7800  16.7800

          k =-1.0000 0.4000 0.0000 (  1154 PWs)   bands (ev):

    -1.4693  -1.4693   2.4268   2.4268   9.6378   9.6378  12.1321  12.1321
    16.7806  16.7806

          k =-1.0000 0.4167 0.0000 (  1156 PWs)   bands (ev):

    -1.4642  -1.4642   2.4035   2.4035   9.8120   9.8120  11.9315  11.9315
    16.7812  16.7812

          k =-1.0000 0.4333 0.0000 (  1156 PWs)   bands (ev):

    -1.4600  -1.4600   2.3842   2.3842   9.9847   9.9847  11.7372  11.7372
    16.7818  16.7818

          k =-1.0000 0.4500 0.0000 (  1156 PWs)   bands (ev):

    -1.4566  -1.4566   2.3690   2.3690  10.1522  10.1522  11.5530  11.5530
    16.7822  16.7822

          k =-1.0000 0.4667 0.0000 (  1148 PWs)   bands (ev):

    -1.4542  -1.4542   2.3582   2.3582  10.3062  10.3062  11.3871  11.3871
    16.7825  16.7825

          k =-1.0000 0.4833 0.0000 (  1144 PWs)   bands (ev):

    -1.4527  -1.4527   2.3516   2.3516  10.4273  10.4273  11.2587  11.2587
    16.7827  16.7827

          k =-1.0000 0.5000 0.0000 (  1144 PWs)   bands (ev):

    -1.4522  -1.4522   2.3494   2.3494  10.4771  10.4771  11.2066  11.2066
    16.7828  16.7828

          k =-0.9875 0.5000 0.0125 (  1144 PWs)   bands (ev):

    -1.5337  -1.3714   2.2908   2.4129  10.4098  10.5279  11.1511  11.2842
    16.6244  16.9212

          k =-0.9750 0.5000 0.0250 (  1148 PWs)   bands (ev):

    -1.6157  -1.2918   2.2376   2.4809  10.3343  10.5506  11.1294  11.3755
    16.4472  17.0393

          k =-0.9625 0.5000 0.0375 (  1152 PWs)   bands (ev):

    -1.6976  -1.2139   2.1903   2.5528  10.2557  10.5375  11.1490  11.4757
    16.2530  17.1376

          k =-0.9500 0.5000 0.0500 (  1154 PWs)   bands (ev):

    -1.7793  -1.1383   2.1496   2.6282  10.1765  10.4936  11.2050  11.5821
    16.0442  17.2173

          k =-0.9375 0.5000 0.0625 (  1154 PWs)   bands (ev):

    -1.8603  -1.0654   2.1160   2.7069  10.0984  10.4300  11.2862  11.6932
    15.8232  17.2798

          k =-0.9250 0.5000 0.0750 (  1152 PWs)   bands (ev):

    -1.9405  -0.9960   2.0903   2.7884  10.0222  10.3558  11.3835  11.8081
    15.5923  17.3269

          k =-0.9125 0.5000 0.0875 (  1152 PWs)   bands (ev):

    -2.0197  -0.9306   2.0730   2.8723   9.9486  10.2763  11.4915  11.9261
    15.3537  17.3600

          k =-0.9000 0.5000 0.1000 (  1162 PWs)   bands (ev):

    -2.0976  -0.8699   2.0647   2.9583   9.8779  10.1944  11.6072  12.0468
    15.1092  17.3805

          k =-0.8875 0.5000 0.1125 (  1158 PWs)   bands (ev):

    -2.1741  -0.8143   2.0661   3.0462   9.8106  10.1119  11.7289  12.1698
    14.8605  17.3893

          k =-0.8750 0.5000 0.1250 (  1158 PWs)   bands (ev):

    -2.2491  -0.7644   2.0776   3.1356   9.7468  10.0296  11.8557  12.2950
    14.6088  17.3874

          k =-0.8625 0.5000 0.1375 (  1156 PWs)   bands (ev):

    -2.3224  -0.7205   2.0995   3.2262   9.6868   9.9480  11.9869  12.4220
    14.3552  17.3750

          k =-0.8500 0.5000 0.1500 (  1158 PWs)   bands (ev):

    -2.3938  -0.6829   2.1322   3.3176   9.6307   9.8676  12.1221  12.5507
    14.1008  17.3526

          k =-0.8375 0.5000 0.1625 (  1152 PWs)   bands (ev):

    -2.4634  -0.6516   2.1756   3.4097   9.5787   9.7884  12.2610  12.6807
    13.8463  17.3199

          k =-0.8250 0.5000 0.1750 (  1152 PWs)   bands (ev):

    -2.5309  -0.6265   2.2296   3.5019   9.5308   9.7107  12.4035  12.8118
    13.5924  17.2769

          k =-0.8125 0.5000 0.1875 (  1158 PWs)   bands (ev):

    -2.5964  -0.6074   2.2940   3.5941   9.4874   9.6343  12.5493  12.9438
    13.3399  17.2231

          k =-0.8000 0.5000 0.2000 (  1156 PWs)   bands (ev):

    -2.6597  -0.5939   2.3682   3.6860   9.4484   9.5594  12.6982  13.0762
    13.0894  17.1583

          k =-0.7875 0.5000 0.2125 (  1154 PWs)   bands (ev):

    -2.7208  -0.5856   2.4518   3.7771   9.4139   9.4857  12.8338  12.8578
    13.2086  17.0822

          k =-0.7750 0.5000 0.2250 (  1156 PWs)   bands (ev):

    -2.7796  -0.5818   2.5440   3.8671   9.3841   9.4133  12.5953  13.0064
    13.3406  16.9952

          k =-0.7625 0.5000 0.2375 (  1156 PWs)   bands (ev):

    -2.8361  -0.5820   2.6443   3.9558   9.3418   9.3590  12.3537  13.1646
    13.4713  16.8979

          k =-0.7500 0.5000 0.2500 (  1154 PWs)   bands (ev):

    -2.8901  -0.5856   2.7520   4.0428   9.2710   9.3387  12.1163  13.3258
    13.6001  16.7919

          k =-0.7375 0.5000 0.2625 (  1156 PWs)   bands (ev):

    -2.9418  -0.5920   2.8662   4.1277   9.2007   9.3232  11.8837  13.4899
    13.7258  16.6797

          k =-0.7250 0.5000 0.2750 (  1162 PWs)   bands (ev):

    -2.9910  -0.6007   2.9863   4.2102   9.1305   9.3124  11.6567  13.6569
    13.8469  16.5644

          k =-0.7125 0.5000 0.2875 (  1160 PWs)   bands (ev):

    -3.0377  -0.6112   3.1116   4.2900   9.0598   9.3063  11.4361  13.8266
    13.9616  16.4497

          k =-0.7000 0.5000 0.3000 (  1156 PWs)   bands (ev):

    -3.0819  -0.6230   3.2413   4.3667   8.9882   9.3049  11.2230  13.9990
    14.0673  16.3404

          k =-0.6875 0.5000 0.3125 (  1158 PWs)   bands (ev):

    -3.1235  -0.6357   3.3748   4.4401   8.9149   9.3079  11.0182  14.1609
    14.1741  16.2415

          k =-0.6750 0.5000 0.3250 (  1152 PWs)   bands (ev):

    -3.1625  -0.6489   3.5113   4.5099   8.8393   9.3150  10.8232  14.2386
    14.3517  16.1586

          k =-0.6625 0.5000 0.3375 (  1156 PWs)   bands (ev):

    -3.1989  -0.6624   3.6499   4.5757   8.7605   9.3261  10.6391  14.2962
    14.5318  16.0974

          k =-0.6500 0.5000 0.3500 (  1158 PWs)   bands (ev):

    -3.2327  -0.6758   3.7900   4.6374   8.6779   9.3407  10.4673  14.3305
    14.7142  16.0627

          k =-0.6375 0.5000 0.3625 (  1156 PWs)   bands (ev):

    -3.2639  -0.6888   3.9305   4.6947   8.5908   9.3583  10.3092  14.3400
    14.8990  16.0569

          k =-0.6250 0.5000 0.3750 (  1154 PWs)   bands (ev):

    -3.2924  -0.7014   4.0704   4.7475   8.4991   9.3784  10.1660  14.3263
    15.0858  16.0796

          k =-0.6125 0.5000 0.3875 (  1158 PWs)   bands (ev):

    -3.3182  -0.7132   4.2085   4.7956   8.4030   9.4002  10.0384  14.2933
    15.2745  16.1273

          k =-0.6000 0.5000 0.4000 (  1158 PWs)   bands (ev):

    -3.3414  -0.7242   4.3431   4.8388   8.3035   9.4231   9.9268  14.2469
    15.4648  16.1947

          k =-0.5875 0.5000 0.4125 (  1162 PWs)   bands (ev):

    -3.3618  -0.7342   4.4726   4.8771   8.2024   9.4463   9.8312  14.1929
    15.6563  16.2761

          k =-0.5750 0.5000 0.4250 (  1162 PWs)   bands (ev):

    -3.3796  -0.7431   4.5947   4.9104   8.1024   9.4688   9.7510  14.1367
    15.8484  16.3660

          k =-0.5625 0.5000 0.4375 (  1164 PWs)   bands (ev):

    -3.3946  -0.7507   4.7068   4.9386   8.0069   9.4898   9.6853  14.0825
    16.0398  16.4589

          k =-0.5500 0.5000 0.4500 (  1164 PWs)   bands (ev):

    -3.4069  -0.7570   4.8058   4.9617   7.9198   9.5084   9.6333  14.0339
    16.2287  16.5496

          k =-0.5375 0.5000 0.4625 (  1164 PWs)   bands (ev):

    -3.4165  -0.7621   4.8883   4.9797   7.8455   9.5238   9.5940  13.9935
    16.4109  16.6323

          k =-0.5250 0.5000 0.4750 (  1164 PWs)   bands (ev):

    -3.4233  -0.7657   4.9506   4.9926   7.7884   9.5354   9.5666  13.9632
    16.5778  16.7003

          k =-0.5125 0.5000 0.4875 (  1164 PWs)   bands (ev):

    -3.4274  -0.7678   4.9896   5.0003   7.7523   9.5426   9.5504  13.9445
    16.7086  16.7459

          k =-0.5000 0.5000 0.5000 (  1158 PWs)   bands (ev):

    -3.4288  -0.7686   5.0029   5.0029   7.7399   9.5450   9.5450  13.9382
    16.7621  16.7621

          k =-0.4917 0.4917 0.4917 (  1164 PWs)   bands (ev):

    -3.4328  -0.7628   5.0034   5.0034   7.7405   9.5456   9.5456  13.9391
    16.7260  16.7260

          k =-0.4833 0.4833 0.4833 (  1164 PWs)   bands (ev):

    -3.4447  -0.7458   5.0049   5.0049   7.7422   9.5473   9.5473  13.9418
    16.6334  16.6334

          k =-0.4750 0.4750 0.4750 (  1164 PWs)   bands (ev):

    -3.4642  -0.7177   5.0074   5.0074   7.7451   9.5502   9.5502  13.9462
    16.5096  16.5096

          k =-0.4667 0.4667 0.4667 (  1164 PWs)   bands (ev):

    -3.4908  -0.6790   5.0109   5.0109   7.7491   9.5542   9.5542  13.9524
    16.3706  16.3706

          k =-0.4583 0.4583 0.4583 (  1164 PWs)   bands (ev):

    -3.5240  -0.6304   5.0154   5.0154   7.7543   9.5593   9.5593  13.9602
    16.2247  16.2247

          k =-0.4500 0.4500 0.4500 (  1164 PWs)   bands (ev):

    -3.5629  -0.5726   5.0208   5.0208   7.7606   9.5655   9.5655  13.9696
    16.0757  16.0757

          k =-0.4417 0.4417 0.4417 (  1161 PWs)   bands (ev):

    -3.6070  -0.5062   5.0273   5.0273   7.7680   9.5726   9.5726  13.9804
    15.9260  15.9260

          k =-0.4333 0.4333 0.4333 (  1161 PWs)   bands (ev):

    -3.6554  -0.4321   5.0348   5.0348   7.7766   9.5807   9.5807  13.9926
    15.7768  15.7768

          k =-0.4250 0.4250 0.4250 (  1155 PWs)   bands (ev):

    -3.7076  -0.3508   5.0433   5.0433   7.7863   9.5896   9.5896  14.0060
    15.6290  15.6290

          k =-0.4167 0.4167 0.4167 (  1155 PWs)   bands (ev):

    -3.7628  -0.2631   5.0527   5.0527   7.7971   9.5993   9.5993  14.0202
    15.4830  15.4830

          k =-0.4083 0.4083 0.4083 (  1155 PWs)   bands (ev):

    -3.8205  -0.1695   5.0632   5.0632   7.8090   9.6097   9.6097  14.0351
    15.3394  15.3394

          k =-0.4000 0.4000 0.4000 (  1161 PWs)   bands (ev):

    -3.8802  -0.0705   5.0746   5.0746   7.8221   9.6207   9.6207  14.0503
    15.1984  15.1984

          k =-0.3917 0.3917 0.3917 (  1155 PWs)   bands (ev):

    -3.9413   0.0333   5.0871   5.0871   7.8362   9.6321   9.6321  14.0652
    15.0603  15.0603

          k =-0.3833 0.3833 0.3833 (  1155 PWs)   bands (ev):

    -4.0036   0.1416   5.1005   5.1005   7.8515   9.6439   9.6439  14.0792
    14.9255  14.9255

          k =-0.3750 0.3750 0.3750 (  1155 PWs)   bands (ev):

    -4.0666   0.2539   5.1148   5.1148   7.8678   9.6558   9.6558  14.0915
    14.7941  14.7941

          k =-0.3667 0.3667 0.3667 (  1155 PWs)   bands (ev):

    -4.1300   0.3700   5.1302   5.1302   7.8853   9.6677   9.6677  14.1010
    14.6664  14.6664

          k =-0.3583 0.3583 0.3583 (  1155 PWs)   bands (ev):

    -4.1936   0.4896   5.1465   5.1465   7.9037   9.6794   9.6794  14.1061
    14.5427  14.5427

          k =-0.3500 0.3500 0.3500 (  1155 PWs)   bands (ev):

    -4.2571   0.6124   5.1638   5.1638   7.9233   9.6907   9.6907  14.1050
    14.4231  14.4231

          k =-0.3417 0.3417 0.3417 (  1149 PWs)   bands (ev):

    -4.3203   0.7382   5.1821   5.1821   7.9438   9.7014   9.7014  14.0953
    14.3079  14.3079

          k =-0.3333 0.3333 0.3333 (  1149 PWs)   bands (ev):

    -4.3831   0.8668   5.2013   5.2013   7.9654   9.7114   9.7114  14.0744
    14.1974  14.1974

          k =-0.3250 0.3250 0.3250 (  1149 PWs)   bands (ev):

    -4.4453   0.9981   5.2214   5.2214   7.9880   9.7202   9.7202  14.0396
    14.0919  14.0919

          k =-0.3167 0.3167 0.3167 (  1155 PWs)   bands (ev):

    -4.5068   1.1318   5.2424   5.2424   8.0115   9.7277   9.7277  13.9890
    13.9916  13.9916

          k =-0.3083 0.3083 0.3083 (  1155 PWs)   bands (ev):

    -4.5674   1.2678   5.2644   5.2644   8.0360   9.7337   9.7337  13.8967
    13.8967  13.9217

          k =-0.3000 0.3000 0.3000 (  1161 PWs)   bands (ev):

    -4.6270   1.4059   5.2873   5.2873   8.0614   9.7378   9.7378  13.8077
    13.8077  13.8384

          k =-0.2917 0.2917 0.2917 (  1161 PWs)   bands (ev):

    -4.6856   1.5462   5.3110   5.3110   8.0877   9.7398   9.7398  13.7246
    13.7246  13.7410

          k =-0.2833 0.2833 0.2833 (  1164 PWs)   bands (ev):

    -4.7430   1.6883   5.3356   5.3356   8.1148   9.7394   9.7394  13.6319
    13.6479  13.6479

          k =-0.2750 0.2750 0.2750 (  1164 PWs)   bands (ev):

    -4.7993   1.8323   5.3610   5.3610   8.1428   9.7364   9.7364  13.5133
    13.5777  13.5777

          k =-0.2667 0.2667 0.2667 (  1164 PWs)   bands (ev):

    -4.8542   1.9780   5.3873   5.3873   8.1715   9.7305   9.7305  13.3874
    13.5143  13.5143

          k =-0.2583 0.2583 0.2583 (  1158 PWs)   bands (ev):

    -4.9079   2.1254   5.4143   5.4143   8.2010   9.7216   9.7216  13.2558
    13.4579  13.4579

          k =-0.2500 0.2500 0.2500 (  1164 PWs)   bands (ev):

    -4.9601   2.2742   5.4421   5.4421   8.2311   9.7095   9.7095  13.1198
    13.4085  13.4085

          k =-0.2417 0.2417 0.2417 (  1158 PWs)   bands (ev):

    -5.0109   2.4244   5.4707   5.4707   8.2619   9.6940   9.6940  12.9804
    13.3664  13.3664

          k =-0.2333 0.2333 0.2333 (  1164 PWs)   bands (ev):

    -5.0603   2.5759   5.4999   5.4999   8.2932   9.6752   9.6752  12.8382
    13.3315  13.3315

          k =-0.2250 0.2250 0.2250 (  1164 PWs)   bands (ev):

    -5.1081   2.7286   5.5297   5.5297   8.3250   9.6529   9.6529  12.6940
    13.3038  13.3038

          k =-0.2167 0.2167 0.2167 (  1167 PWs)   bands (ev):

    -5.1544   2.8824   5.5602   5.5602   8.3572   9.6274   9.6274  12.5480
    13.2833  13.2833

          k =-0.2083 0.2083 0.2083 (  1167 PWs)   bands (ev):

    -5.1992   3.0372   5.5911   5.5911   8.3897   9.5986   9.5986  12.4007
    13.2699  13.2699

          k =-0.2000 0.2000 0.2000 (  1167 PWs)   bands (ev):

    -5.2423   3.1928   5.6226   5.6226   8.4225   9.5667   9.5667  12.2524
    13.2632  13.2632

          k =-0.1917 0.1917 0.1917 (  1167 PWs)   bands (ev):

    -5.2838   3.3491   5.6544   5.6544   8.4553   9.5320   9.5320  12.1032
    13.2631  13.2631

          k =-0.1833 0.1833 0.1833 (  1167 PWs)   bands (ev):

    -5.3237   3.5059   5.6867   5.6867   8.4882   9.4947   9.4947  11.9535
    13.2692  13.2692

          k =-0.1750 0.1750 0.1750 (  1167 PWs)   bands (ev):

    -5.3619   3.6631   5.7191   5.7191   8.5209   9.4551   9.4551  11.8035
    13.2812  13.2812

          k =-0.1667 0.1667 0.1667 (  1167 PWs)   bands (ev):

    -5.3985   3.8206   5.7517   5.7517   8.5533   9.4137   9.4137  11.6533
    13.2987  13.2987

          k =-0.1583 0.1583 0.1583 (  1173 PWs)   bands (ev):

    -5.4334   3.9781   5.7844   5.7844   8.5852   9.3706   9.3706  11.5033
    13.3212  13.3212

          k =-0.1500 0.1500 0.1500 (  1173 PWs)   bands (ev):

    -5.4665   4.1353   5.8170   5.8170   8.6165   9.3264   9.3264  11.3537
    13.3483  13.3483

          k =-0.1417 0.1417 0.1417 (  1173 PWs)   bands (ev):

    -5.4979   4.2921   5.8495   5.8495   8.6469   9.2813   9.2813  11.2048
    13.3795  13.3795

          k =-0.1333 0.1333 0.1333 (  1173 PWs)   bands (ev):

    -5.5276   4.4481   5.8816   5.8816   8.6762   9.2359   9.2359  11.0570
    13.4142  13.4142

          k =-0.1250 0.1250 0.1250 (  1173 PWs)   bands (ev):

    -5.5555   4.6030   5.9133   5.9133   8.7041   9.1904   9.1904  10.9109
    13.4519  13.4519

          k =-0.1167 0.1167 0.1167 (  1173 PWs)   bands (ev):

    -5.5817   4.7563   5.9443   5.9443   8.7304   9.1454   9.1454  10.7668
    13.4920  13.4920

          k =-0.1083 0.1083 0.1083 (  1179 PWs)   bands (ev):

    -5.6061   4.9076   5.9746   5.9746   8.7545   9.1012   9.1012  10.6255
    13.5340  13.5340

          k =-0.1000 0.1000 0.1000 (  1179 PWs)   bands (ev):

    -5.6287   5.0564   6.0039   6.0039   8.7762   9.0582   9.0582  10.4878
    13.5772  13.5772

          k =-0.0917 0.0917 0.0917 (  1179 PWs)   bands (ev):

    -5.6496   5.2019   6.0319   6.0319   8.7949   9.0168   9.0168  10.3546
    13.6209  13.6209

          k =-0.0833 0.0833 0.0833 (  1185 PWs)   bands (ev):

    -5.6686   5.3432   6.0587   6.0587   8.8101   8.9773   8.9773  10.2271
    13.6645  13.6645

          k =-0.0750 0.0750 0.0750 (  1185 PWs)   bands (ev):

    -5.6859   5.4795   6.0838   6.0838   8.8213   8.9403   8.9403  10.1068
    13.7073  13.7073

          k =-0.0667 0.0667 0.0667 (  1185 PWs)   bands (ev):

    -5.7013   5.6095   6.1070   6.1070   8.8278   8.9059   8.9059   9.9951
    13.7485  13.7485

          k =-0.0583 0.0583 0.0583 (  1179 PWs)   bands (ev):

    -5.7150   5.7317   6.1282   6.1282   8.8293   8.8747   8.8747   9.8938
    13.7873  13.7873

          k =-0.0500 0.0500 0.0500 (  1167 PWs)   bands (ev):

    -5.7268   5.8445   6.1472   6.1472   8.8255   8.8468   8.8468   9.8045
    13.8230  13.8230

          k =-0.0417 0.0417 0.0417 (  1164 PWs)   bands (ev):

    -5.7368   5.9459   6.1636   6.1636   8.8169   8.8227   8.8227   9.7288
    13.8548  13.8548

          k =-0.0333 0.0333 0.0333 (  1163 PWs)   bands (ev):

    -5.7450   6.0336   6.1774   6.1774   8.8025   8.8025   8.8046   9.6675
    13.8821  13.8821

          k =-0.0250 0.0250 0.0250 (  1157 PWs)   bands (ev):

    -5.7514   6.1052   6.1883   6.1883   8.7866   8.7866   8.7908   9.6209
    13.9040  13.9040

          k =-0.0167 0.0167 0.0167 (  1157 PWs)   bands (ev):

    -5.7560   6.1585   6.1962   6.1962   8.7750   8.7750   8.7780   9.5884
    13.9201  13.9201

          k =-0.0083 0.0083 0.0083 (  1139 PWs)   bands (ev):

    -5.7587   6.1914   6.2009   6.2009   8.7681   8.7681   8.7690   9.5694
    13.9300  13.9300

          k = 0.0000 0.0000 0.0000 (  1139 PWs)   bands (ev):

    -5.7596   6.2025   6.2025   6.2025   8.7657   8.7657   8.7657   9.5631
    13.9333  13.9333

     Writing all to output data dir ./si.save/
 
     init_run     :      0.21s CPU      0.23s WALL (       1 calls)
     electrons    :     13.12s CPU     13.36s WALL (       1 calls)

     Called by init_run:
     wfcinit      :      0.00s CPU      0.00s WALL (       1 calls)
     wfcinit:atom :      0.00s CPU      0.00s WALL (     126 calls)
     wfcinit:wfcr :      0.44s CPU      0.46s WALL (     126 calls)
     potinit      :      0.03s CPU      0.04s WALL (       1 calls)
     hinit0       :      0.09s CPU      0.10s WALL (       1 calls)

     Called by electrons:
     c_bands      :     13.12s CPU     13.36s WALL (       1 calls)
     v_of_rho     :      0.02s CPU      0.02s WALL (       1 calls)
     v_h          :      0.00s CPU      0.00s WALL (       1 calls)
     v_xc         :      0.02s CPU      0.02s WALL (       1 calls)
     newd         :      0.01s CPU      0.01s WALL (       1 calls)

     Called by c_bands:
     init_us_2    :      0.01s CPU      0.01s WALL (     126 calls)
     init_us_2:cp :      0.01s CPU      0.01s WALL (     126 calls)
     cegterg      :     11.78s CPU     11.99s WALL (     307 calls)

     Called by sum_band:

     Called by *egterg:
     cdiaghg      :      0.50s CPU      0.51s WALL (    5285 calls)
     cegterg:over :      0.64s CPU      0.65s WALL (    5159 calls)
     cegterg:upda :      0.16s CPU      0.16s WALL (    5159 calls)
     cegterg:last :      0.34s CPU      0.34s WALL (    3230 calls)
     h_psi        :     10.12s CPU     10.31s WALL (    5592 calls)
     s_psi        :      0.26s CPU      0.26s WALL (    5592 calls)
     g_psi        :      0.03s CPU      0.03s WALL (    5159 calls)

     Called by h_psi:
     h_psi:calbec :      0.31s CPU      0.32s WALL (    5592 calls)
     vloc_psi     :      9.51s CPU      9.69s WALL (    5592 calls)
     add_vuspsi   :      0.26s CPU      0.26s WALL (    5592 calls)

     General routines
     calbec       :      0.31s CPU      0.31s WALL (    5592 calls)
     fft          :      0.01s CPU      0.02s WALL (      13 calls)
     ffts         :      0.00s CPU      0.00s WALL (       1 calls)
     fftw         :      8.99s CPU      9.16s WALL (   66538 calls)
     interpolate  :      0.00s CPU      0.00s WALL (       1 calls)
     davcio       :      0.01s CPU      0.01s WALL (     252 calls)
 
     Parallel routines
 
     PWSCF        :     13.59s CPU     14.08s WALL

 
   This run was terminated on:   9: 3:39  22Mar2023            

=------------------------------------------------------------------------------=
   JOB DONE.
=------------------------------------------------------------------------------=
