       6
 i =       0, E =      -24.8116066906
  C        -3.5022849071        0.9659715029       -0.3171886818
  H        -3.7445828605        2.0035513872       -0.2184673887
  H        -3.7284913622        0.3764788911        0.5466310478
  H        -3.8106418896        0.5274002323       -1.2433487124
 Cl        -6.2147900897        0.9991349041       -0.1890001753
 Cl        -1.5492111478        0.9424967669       -0.4090560682
       6
 i =       1, E =      -24.8133700292
  C        -3.4967340700        0.9659654749       -0.3176051761
  H        -3.7619569549        2.0265689167       -0.2157375945
  H        -3.7454464438        0.3635771222        0.5663036327
  H        -3.8294866886        0.5179412194       -1.2630835183
 Cl        -6.2037114581        0.9989944839       -0.1895336690
 Cl        -1.5879179252        0.9429356536       -0.4072237050
       6
 i =       2, E =      -24.8142376313
  C        -3.4893858962        0.9657964440       -0.3175531998
  H        -3.7700696364        2.0180469127       -0.2161206719
  H        -3.7535759464        0.3687605917        0.5593387091
  H        -3.8371060374        0.5217050310       -1.2549743734
 Cl        -6.2016653175        0.9989633352       -0.1896403375
 Cl        -1.6293043844        0.9434150696       -0.4052952825
       6
 i =       3, E =      -24.8145162460
  C        -3.4779314593        0.9659040075       -0.3189210595
  H        -3.7768995066        2.0147070929       -0.2160533276
  H        -3.7605646573        0.3704735189        0.5573455308
  H        -3.8436319289        0.5233609592       -1.2512640019
 Cl        -6.2096439742        0.9990588243       -0.1892764456
 Cl        -1.6316189127        0.9434249498       -0.4051708916
       6
 i =       4, E =      -24.8146480381
  C        -3.4731421310        0.9653437554       -0.3174511196
  H        -3.7806531687        2.0119332207       -0.2161948214
  H        -3.7640626796        0.3728236701        0.5541470534
  H        -3.8473808417        0.5244278594       -1.2490509955
 Cl        -6.2184320352        0.9991595500       -0.1888571612
 Cl        -1.6321010505        0.9434365736       -0.4052028194
       6
 i =       5, E =      -24.8146970400
  C        -3.4717039244        0.9658939321       -0.3193277363
  H        -3.7816851490        2.0104973168       -0.2161841328
  H        -3.7654303941        0.3729183095        0.5541469645
  H        -3.8481372596        0.5252590885       -1.2471342432
 Cl        -6.2227935675        0.9992150385       -0.1886667583
 Cl        -1.6325401314        0.9434231655       -0.4051364492
       6
 i =       6, E =      -24.8147416179
  C        -3.4700982220        0.9654532626       -0.3181218502
  H        -3.7829697587        2.0099395247       -0.2162296055
  H        -3.7664860948        0.3738079615        0.5529082395
  H        -3.8495115428        0.5253928154       -1.2469212729
 Cl        -6.2276321114        0.9992694757       -0.1884335379
 Cl        -1.6328486410        0.9434353341       -0.4051620318
       6
 i =       7, E =      -24.8147677042
  C        -3.4693262575        0.9655174478       -0.3183730458
  H        -3.7836291980        2.0093617440       -0.2162371339
  H        -3.7671913846        0.3740608209        0.5525976106
  H        -3.8501137840        0.5256747001       -1.2462944386
 Cl        -6.2307787741        0.9993072157       -0.1882889741
 Cl        -1.6330955891        0.9434343244       -0.4051476110
       6
 i =       8, E =      -24.8147780537
  C        -3.4690470853        0.9655910005       -0.3186085107
  H        -3.7838662170        2.0091401805       -0.2162342101
  H        -3.7674724348        0.3740967136        0.5525705354
  H        -3.8503158836        0.5257958073       -1.2460162457
 Cl        -6.2321079954        0.9993234585       -0.1882288384
 Cl        -1.6331307669        0.9434318648       -0.4051411546
       6
 i =       9, E =      -24.8148721254
  C        -3.4659069082        0.9659194458       -0.3198270767
  H        -3.7864410194        2.0069594406       -0.2162443770
  H        -3.7702690384        0.3749425655        0.5515743264
  H        -3.8526514563        0.5268877452       -1.2435710233
 Cl        -6.2469727824        0.9995017321       -0.1875468873
 Cl        -1.6335333636        0.9434182756       -0.4051077167
       6
 i =      10, E =      -24.8148847629
  C        -3.4655276258        0.9655607111       -0.3187973052
  H        -3.7865677145        2.0069616693       -0.2162842059
  H        -3.7701964860        0.3753949393        0.5508969752
  H        -3.8528817082        0.5267857582       -1.2438620581
 Cl        -6.2490954982        0.9995244040       -0.1874415084
 Cl        -1.6335095150        0.9434270003       -0.4051401152
       6
 i =      11, E =      -24.8149191890
  C        -3.4642590255        0.9657441626       -0.3194125097
  H        -3.7867633477        2.0063123130       -0.2163006869
  H        -3.7705088165        0.3755295382        0.5507440782
  H        -3.8529874600        0.5271214191       -1.2431053560
 Cl        -6.2564050188        0.9996120208       -0.1871067441
 Cl        -1.6333223691        0.9434166064       -0.4051418980
       6
 i =      12, E =      -24.8149275377
  C        -3.4638181800        0.9655620127       -0.3189349865
  H        -3.7867699090        2.0062558992       -0.2163264339
  H        -3.7704188585        0.3757817114        0.5503665074
  H        -3.8530378616        0.5271002105       -1.2431877675
 Cl        -6.2582344439        0.9996324031       -0.1870187639
 Cl        -1.6331858434        0.9434191999       -0.4051641635
       6
 i =      13, E =      -24.8149456136
  C        -3.4627596330        0.9656327360       -0.3192104647
  H        -3.7866666647        2.0058649115       -0.2163511896
  H        -3.7703659454        0.3759050755        0.5501952904
  H        -3.8528916147        0.5272870002       -1.2427765314
 Cl        -6.2627391201        0.9996860474       -0.1868119059
 Cl        -1.6328012207        0.9434104685       -0.4051806472
       6
 i =      14, E =      -24.8149483722
  C        -3.4625663905        0.9656011698       -0.3191389211
  H        -3.7866316458        2.0058225625       -0.2163595655
  H        -3.7703155367        0.3759647609        0.5501051868
  H        -3.8528616514        0.5272975529       -1.2427610163
 Cl        -6.2634592872        0.9996943303       -0.1867780739
 Cl        -1.6327170351        0.9434099914       -0.4051876159
       6
 i =      15, E =      -24.8149618554
  C        -3.4615144634        0.9655132083       -0.3189804477
  H        -3.7864115925        2.0055570480       -0.2163991999
  H        -3.7700581734        0.3762064533        0.5497403476
  H        -3.8526457457        0.5273901651       -1.2425851571
 Cl        -6.2673201597        0.9997392767       -0.1865982083
 Cl        -1.6322451785        0.9434049504       -0.4052197964
       6
 i =      16, E =      -24.8149664252
  C        -3.4610997189        0.9655656522       -0.3191549400
  H        -3.7862719404        2.0054215908       -0.2164092487
  H        -3.7699515470        0.3762125515        0.5497293162
  H        -3.8524843634        0.5274595590       -1.2424289552
 Cl        -6.2687208341        0.9997561336       -0.1865345021
 Cl        -1.6320246141        0.9434001267       -0.4052272575
       6
 i =      17, E =      -24.8149744919
  C        -3.4602545443        0.9655387548       -0.3191480713
  H        -3.7859836227        2.0052227297       -0.2164397796
  H        -3.7696568254        0.3763426578        0.5495247313
  H        -3.8521892863        0.5275362558       -1.2422757211
 Cl        -6.2714223877        0.9997877881       -0.1864093619
 Cl        -1.6315668930        0.9433939933       -0.4052528282
       6
 i =      18, E =      -24.8149779352
  C        -3.4598416046        0.9655447580       -0.3191965676
  H        -3.7858139330        2.0051239624       -0.2164538717
  H        -3.7694944517        0.3763833725        0.5494574513
  H        -3.8520115370        0.5275783668       -1.2421876178
 Cl        -6.2726661628        0.9998024739       -0.1863521088
 Cl        -1.6313234178        0.9433902240       -0.4052646581
       6
 i =      19, E =      -24.8149853674
  C        -3.4588576690        0.9655398196       -0.3192598887
  H        -3.7854413433        2.0048900406       -0.2164881778
  H        -3.7691287767        0.3765035358        0.5492642126
  H        -3.8516245287        0.5276741659       -1.2419906986
 Cl        -6.2757092534        0.9998382854       -0.1862116463
 Cl        -1.6307664196        0.9433820642       -0.4052933946
       6
 i =      20, E =      -24.8149912517
  C        -3.4578252839        0.9655045599       -0.3192447432
  H        -3.7849266369        2.0047038017       -0.2165288548
  H        -3.7686041944        0.3766294695        0.5490502442
  H        -3.8511058567        0.5277398414       -1.2418667534
 Cl        -6.2784651322        0.9998704706       -0.1860840608
 Cl        -1.6300948053        0.9433733849       -0.4053292994
       6
 i =      21, E =      -24.8149921240
  C        -3.4576489420        0.9655108529       -0.3192750253
  H        -3.7848241025        2.0046689458       -0.2165352330
  H        -3.7685066121        0.3766376924        0.5490329621
  H        -3.8509995423        0.5277548393       -1.2418352706
 Cl        -6.2789108624        0.9998757450       -0.1860636588
 Cl        -1.6299692036        0.9433714012       -0.4053349146
       6
 i =      22, E =      -24.8149965479
  C        -3.4566021142        0.9655198842       -0.3193830220
  H        -3.7842255781        2.0044835061       -0.2165743962
  H        -3.7679228548        0.3767068858        0.5488991724
  H        -3.8503857650        0.5278297023       -1.2416844350
 Cl        -6.2814740253        0.9999058926       -0.1859459463
 Cl        -1.6292445657        0.9433609370       -0.4053698936
       6
 i =      23, E =      -24.8149976696
  C        -3.4562699074        0.9655003303       -0.3193568976
  H        -3.7840252733        2.0044415990       -0.2165885778
  H        -3.7677147641        0.3767460501        0.5488291825
  H        -3.8501872189        0.5278407568       -1.2416682850
 Cl        -6.2822114395        0.9999143998       -0.1859117611
 Cl        -1.6290097872        0.9433581658       -0.4053827740
       6
 i =      24, E =      -24.8150001879
  C        -3.4553847900        0.9654932895       -0.3194011799
  H        -3.7834735372        2.0043111164       -0.2166237041
  H        -3.7671661073        0.3768081302        0.5487060340
  H        -3.8496293673        0.5278866744       -1.2415817533
 Cl        -6.2841265504        0.9999367534       -0.1858237670
 Cl        -1.6283763332        0.9433494234       -0.4054142629
       6
 i =      25, E =      -24.8150009097
  C        -3.4550741786        0.9654857641       -0.3194133535
  H        -3.7832638687        2.0042714339       -0.2166364236
  H        -3.7669559184        0.3768297779        0.5486620280
  H        -3.8494172734        0.5279011192       -1.2415558809
 Cl        -6.2847585905        0.9999440747       -0.1857947724
 Cl        -1.6281373028        0.9433462857       -0.4054261559
       6
 i =      26, E =      -24.8150019745
  C        -3.4545506997        0.9654792905       -0.3194357129
  H        -3.7829177372        2.0042003775       -0.2166577786
  H        -3.7666105639        0.3768648200        0.5485902050
  H        -3.8490680641        0.5279253265       -1.2415117438
 Cl        -6.2858363193        0.9999566082       -0.1857453176
 Cl        -1.6277439271        0.9433409352       -0.4054457155
       6
 i =      27, E =      -24.8150032860
  C        -3.4536483991        0.9654742766       -0.3194837212
  H        -3.7822795951        2.0040918237       -0.2166949413
  H        -3.7659760862        0.3769106119        0.5484848124
  H        -3.8484253923        0.5279601004       -1.2414502760
 Cl        -6.2875035357        0.9999759361       -0.1856691423
 Cl        -1.6270416021        0.9433312400       -0.4054801954
       6
 i =      28, E =      -24.8150034334
  C        -3.4535112335        0.9654696610       -0.3194880425
  H        -3.7821771977        2.0040791042       -0.2167006641
  H        -3.7658729689        0.3769181987        0.5484675673
  H        -3.8483221007        0.5279645184       -1.2414433795
 Cl        -6.2877319028        0.9999785414       -0.1856587367
 Cl        -1.6269307897        0.9433298224       -0.4054857013
       6
 i =      29, E =      -24.8150040196
  C        -3.4528141957        0.9654563880       -0.3195147161
  H        -3.7816525565        2.0040102683       -0.2167300603
  H        -3.7653476212        0.3769521354        0.5483860456
  H        -3.8477944891        0.5279857107       -1.2414099093
 Cl        -6.2888697030        0.9999915679       -0.1856069671
 Cl        -1.6263667345        0.9433223216       -0.4055135886
       6
 i =      30, E =      -24.8150041637
  C        -3.4525646186        0.9654580473       -0.3195296214
  H        -3.7814526038        2.0039852047       -0.2167409229
  H        -3.7651494011        0.3769594202        0.5483630366
  H        -3.8475941401        0.5279919673       -1.2414001659
 Cl        -6.2892428879        0.9999958491       -0.1855901161
 Cl        -1.6261546483        0.9433192379       -0.4055238149
       6
 i =      31, E =      -24.8150044001
  C        -3.4518444610        0.9654456658       -0.3195646006
  H        -3.7808989902        2.0039278849       -0.2167702491
  H        -3.7645959031        0.3769839839        0.5482933573
  H        -3.8470372860        0.5280089096       -1.2413755565
 Cl        -6.2902369154        1.0000070828       -0.1855452864
 Cl        -1.6255804767        0.9433114231       -0.4055519330
       6
 i =      32, E =      -24.8150044308
  C        -3.4516217729        0.9654468723       -0.3195729724
  H        -3.7807099388        2.0039055520       -0.2167806479
  H        -3.7644079340        0.3769914799        0.5482705052
  H        -3.8468488588        0.5280132489       -1.2413699961
 Cl        -6.2905182110        1.0000102514       -0.1855327042
 Cl        -1.6253813357        0.9433086406       -0.4055617570
       6
 i =      33, E =      -24.8150044391
  C        -3.4513017249        0.9654428142       -0.3195878693
  H        -3.7804501994        2.0038798565       -0.2167943912
  H        -3.7641486039        0.3770014777        0.5482399111
  H        -3.8465882840        0.5280199330       -1.2413611578
 Cl        -6.2909172024        1.0000147130       -0.1855148563
 Cl        -1.6251114635        0.9433050084       -0.4055749955
       6
 i =      34, E =      -24.8150044142
  C        -3.4509850766        0.9654367901       -0.3196035827
  H        -3.7801764362        2.0038589391       -0.2168083395
  H        -3.7638748404        0.3770093548        0.5482116565
  H        -3.8463132986        0.5280253910       -1.2413554352
 Cl        -6.2912646106        1.0000185149       -0.1854995103
 Cl        -1.6248258455        0.9433012233       -0.4055889722
       6
 i =      35, E =      -24.8150042897
  C        -3.4503967341        0.9654339243       -0.3196284412
  H        -3.7796757402        2.0038215087       -0.2168339112
  H        -3.7633755412        0.3770196080        0.5481653709
  H        -3.8458135319        0.5280306997       -1.2413542318
 Cl        -6.2918339921        1.0000247026       -0.1854745744
 Cl        -1.6243182525        0.9432942108       -0.4056139862
       6
 i =      36, E =      -24.8150042635
  C        -3.4503031524        0.9654306595       -0.3196339941
  H        -3.7795925649        2.0038174752       -0.2168379076
  H        -3.7632920736        0.3770213044        0.5481579082
  H        -3.8457295658        0.5280321727       -1.2413529730
 Cl        -6.2919075755        1.0000254513       -0.1854714485
 Cl        -1.6242337811        0.9432931121       -0.4056181097
       6
 i =      37, E =      -24.8150038209
  C        -3.4492341614        0.9654095543       -0.3196875500
  H        -3.7786290413        2.0037641056       -0.2168851399
  H        -3.7623280067        0.3770376957        0.5480748547
  H        -3.8447629407        0.5280430627       -1.2413502822
 Cl        -6.2927155345        1.0000336846       -0.1854372835
 Cl        -1.6232564794        0.9432799462       -0.4056660750
       6
 i =      38, E =      -24.8150037751
  C        -3.4491135139        0.9654155779       -0.3196889597
  H        -3.7785173262        2.0037582725       -0.2168907288
  H        -3.7622176740        0.3770356884        0.5480702532
  H        -3.8446541643        0.5280397146       -1.2413591084
 Cl        -6.2927458085        1.0000338982       -0.1854363475
 Cl        -1.6231497560        0.9432782386       -0.4056714893
       6
 i =      39, E =      -24.8150033547
  C        -3.4481475879        0.9654007892       -0.3197369538
  H        -3.7775959909        2.0037434747       -0.2169325619
  H        -3.7612962272        0.3770281788        0.5480243059
  H        -3.8437340586        0.5280327819       -1.2413927598
 Cl        -6.2929427952        1.0000345785       -0.1854314328
 Cl        -1.6222477923        0.9432656614       -0.4057161404
       6
 i =      40, E =      -24.8150033336
  C        -3.4480551978        0.9654029322       -0.3197371982
  H        -3.7774916119        2.0037387346       -0.2169377006
  H        -3.7611922368        0.3770280824        0.5480176639
  H        -3.8436315235        0.5280308759       -1.2413987450
 Cl        -6.2928958863        1.0000337942       -0.1854342210
 Cl        -1.6221460282        0.9432640828       -0.4057213806
       6
 i =      41, E =      -24.8150033233
  C        -3.4479951075        0.9654019207       -0.3197403965
  H        -3.7774275447        2.0037384937       -0.2169404616
  H        -3.7611281864        0.3770271261        0.5480152452
  H        -3.8435677289        0.5280300738       -1.2414017711
 Cl        -6.2928591175        1.0000331947       -0.1854363469
 Cl        -1.6220845197        0.9432632748       -0.4057243749
       6
 i =      42, E =      -24.8150033189
  C        -3.4479681903        0.9654016498       -0.3197415730
  H        -3.7773985028        2.0037386375       -0.2169417421
  H        -3.7610991413        0.3770264882        0.5480143268
  H        -3.8435388345        0.5280295379       -1.2414034715
 Cl        -6.2928419429        1.0000329143       -0.1854373387
 Cl        -1.6220566092        0.9432628509       -0.4057258074
