       6
 i =       0, E =      -24.7992623541
  C        -3.9321339591        0.9712818653       -0.2969235390
  H        -3.8291308931        2.0046194532       -0.2144569701
  H        -3.8128636503        0.3775966999        0.5506294910
  H        -3.8955339048        0.5284917592       -1.2393753644
 Cl        -6.1383609293        0.9981834348       -0.1926151101
 Cl        -1.4728008978        0.9415560242       -0.4126471780
       6
 i =       1, E =      -24.8030032419
  C        -3.9366343846        0.9712947832       -0.2969763152
  H        -3.8149282491        2.0566319856       -0.2107464960
  H        -3.7978349742        0.3474524551        0.5930233503
  H        -3.8846342107        0.5061601255       -1.2870763822
 Cl        -6.0957256066        0.9976642184       -0.1946420404
 Cl        -1.4962788426        0.9418345977       -0.4115553869
       6
 i =       2, E =      -24.8041495466
  C        -3.9278057228        0.9713391113       -0.2965417931
  H        -3.8119041909        2.0306248539       -0.2131437942
  H        -3.7952415645        0.3623690664        0.5712689613
  H        -3.8798743860        0.5169719098       -1.2642004014
 Cl        -6.0490263586        0.9970891894       -0.1968900180
 Cl        -1.5189292265        0.9420984376       -0.4105067532
       6
 i =       3, E =      -24.8046071956
  C        -3.9323425756        0.9710083764       -0.2983434493
  H        -3.8036638009        2.0490869929       -0.2118821649
  H        -3.7866266449        0.3513734446        0.5866553834
  H        -3.8728896326        0.5095988710       -1.2799723655
 Cl        -6.0395508137        0.9969781334       -0.1973116245
 Cl        -1.5317953869        0.9422460359       -0.4099102478
       6
 i =       4, E =      -24.8048449629
  C        -3.9319480673        0.9719896239       -0.2937613298
  H        -3.8043095196        2.0398885370       -0.2128475948
  H        -3.7875646333        0.3571634376        0.5780829633
  H        -3.8727286971        0.5120682223       -1.2748448160
 Cl        -6.0263087976        0.9967934737       -0.1980460200
 Cl        -1.5365989166        0.9422950903       -0.4096972455
       6
 i =       5, E =      -24.8049616992
  C        -3.9344062912        0.9707280433       -0.2990543442
  H        -3.8029097557        2.0429574441       -0.2124021234
  H        -3.7859376913        0.3548481598        0.5816549899
  H        -3.8717852191        0.5125350364       -1.2737432650
 Cl        -6.0239842946        0.9967895491       -0.1980486252
 Cl        -1.5383090582        0.9423133317       -0.4096209833
       6
 i =       6, E =      -24.8050767282
  C        -3.9364316761        0.9720779407       -0.2944716262
  H        -3.8022598954        2.0425258375       -0.2126689773
  H        -3.7854096522        0.3553824919        0.5805574000
  H        -3.8708666522        0.5111142698       -1.2768596319
 Cl        -6.0210648988        0.9967257188       -0.1982855627
 Cl        -1.5394130110        0.9423215099       -0.4095749492
       6
 i =       7, E =      -24.8051580307
  C        -3.9379502789        0.9717925885       -0.2951892201
  H        -3.8018259762        2.0428334969       -0.2126221651
  H        -3.7849548828        0.3551905348        0.5808688125
  H        -3.8704993227        0.5112841494       -1.2764967510
 Cl        -6.0192770316        0.9967089537       -0.1983564372
 Cl        -1.5399109819        0.9423250873       -0.4095560494
       6
 i =       8, E =      -24.8051906358
  C        -3.9385475489        0.9715107642       -0.2960375267
  H        -3.8016908110        2.0429816268       -0.2125729698
  H        -3.7847957414        0.3550649881        0.5811042965
  H        -3.8704242722        0.5115416652       -1.2759372694
 Cl        -6.0186409443        0.9967065017       -0.1983692618
 Cl        -1.5399921460        0.9423251398       -0.4095545055
       6
 i =       9, E =      -24.8054565006
  C        -3.9441815241        0.9705084781       -0.2997998350
  H        -3.8004595275        2.0431475530       -0.2124028679
  H        -3.7834256540        0.3546342308        0.5819396826
  H        -3.8694173177        0.5128286004       -1.2731304808
 Cl        -6.0122115417        0.9966431822       -0.1986042444
 Cl        -1.5409654753        0.9423253715       -0.4095313201
       6
 i =      10, E =      -24.8054515154
  C        -3.9434645087        0.9717637565       -0.2956472286
  H        -3.8005638094        2.0422743105       -0.2126665864
  H        -3.7836570261        0.3553940193        0.5805727026
  H        -3.8692093214        0.5117085174       -1.2755874619
 Cl        -6.0125183734        0.9966196788       -0.1986830058
 Cl        -1.5411655111        0.9423260930       -0.4095213770
       6
 i =      11, E =      -24.8053999690
  C        -3.9428303988        0.9701693163       -0.2987509046
  H        -3.8003443973        2.0435729838       -0.2124196316
  H        -3.7833932077        0.3548406322        0.5816227373
  H        -3.8693373649        0.5125226985       -1.2738698257
 Cl        -6.0129625160        0.9966539697       -0.1985991213
 Cl        -1.5414671953        0.9423237040       -0.4095276967
       6
 i =      12, E =      -24.8054345687
  C        -3.9431280296        0.9719197900       -0.2959480082
  H        -3.8004882972        2.0423652033       -0.2126409877
  H        -3.7835274094        0.3551866810        0.5808801950
  H        -3.8691727103        0.5116774622       -1.2756272319
 Cl        -6.0127131635        0.9966142830       -0.1986728337
 Cl        -1.5412779626        0.9423195381       -0.4095368737
       6
 i =      13, E =      -24.8054927164
  C        -3.9444090464        0.9701969272       -0.2970911201
  H        -3.8002981585        2.0433528952       -0.2125108927
  H        -3.7834522928        0.3553379477        0.5808432205
  H        -3.8692000533        0.5122441885       -1.2745402824
 Cl        -6.0121255330        0.9966404145       -0.1986744703
 Cl        -1.5407640755        0.9423098477       -0.4095749508
       6
 i =      14, E =      -24.8055060890
  C        -3.9445927956        0.9709875562       -0.2967524871
  H        -3.8003450923        2.0428490385       -0.2125632688
  H        -3.7834345770        0.3552521113        0.5808969361
  H        -3.8691501017        0.5120625662       -1.2748636066
 Cl        -6.0120489430        0.9966228611       -0.1986869189
 Cl        -1.5406718593        0.9423080145       -0.4095794237
       6
 i =      15, E =      -24.8055595005
  C        -3.9456391543        0.9725885550       -0.2955534293
  H        -3.8003974741        2.0417607509       -0.2126974441
  H        -3.7833889938        0.3552362175        0.5807589484
  H        -3.8689786628        0.5116143870       -1.2757135203
 Cl        -6.0116356903        0.9965832130       -0.1987367009
 Cl        -1.5401742678        0.9422986569       -0.4096079969
       6
 i =      16, E =      -24.8055840391
  C        -3.9461237300        0.9710635125       -0.2962013128
  H        -3.8002500503        2.0426821124       -0.2125993283
  H        -3.7833678837        0.3554291111        0.5806201882
  H        -3.8690166145        0.5119997436       -1.2750177389
 Cl        -6.0114727072        0.9966120062       -0.1987291767
 Cl        -1.5399765637        0.9422952102       -0.4096230902
       6
 i =      17, E =      -24.8056268067
  C        -3.9469863746        0.9721946323       -0.2964309878
  H        -3.8002801506        2.0419577275       -0.2126385899
  H        -3.7832575798        0.3551389174        0.5809715431
  H        -3.8689386614        0.5119187944       -1.2750639484
 Cl        -6.0111513947        0.9965834086       -0.1987433786
 Cl        -1.5395822180        0.9422880749       -0.4096456243
       6
 i =      18, E =      -24.8056487252
  C        -3.9473970124        0.9712245550       -0.2959786543
  H        -3.8001861820        2.0424898970       -0.2126212502
  H        -3.7833010442        0.3554957410        0.5805094948
  H        -3.8689207513        0.5119856190       -1.2750423413
 Cl        -6.0109975635        0.9966008824       -0.1987600417
 Cl        -1.5393901231        0.9422848140       -0.4096583677
       6
 i =      19, E =      -24.8056991638
  C        -3.9484023101        0.9712093232       -0.2961264008
  H        -3.8001231482        2.0424400172       -0.2126157910
  H        -3.7832298153        0.3554954389        0.5805223271
  H        -3.8688626520        0.5120647088       -1.2748687364
 Cl        -6.0106295214        0.9965951260       -0.1987768685
 Cl        -1.5389343759        0.9422767573       -0.4096862028
       6
 i =      20, E =      -24.8057483498
  C        -3.9493812819        0.9722267318       -0.2962429420
  H        -3.8001405167        2.0417628684       -0.2126573889
  H        -3.7831249076        0.3552693648        0.5807850360
  H        -3.8687769241        0.5119854820       -1.2749293693
 Cl        -6.0102760853        0.9965679296       -0.1987955118
 Cl        -1.5384787866        0.9422689528       -0.4097116530
       6
 i =      21, E =      -24.8057580359
  C        -3.9495539597        0.9717818501       -0.2960771850
  H        -3.8000976474        2.0420113625       -0.2126472084
  H        -3.7831433001        0.3554206262        0.5805926035
  H        -3.8687719708        0.5120237290       -1.2749012394
 Cl        -6.0102133036        0.9965762085       -0.1988018877
 Cl        -1.5383979695        0.9422675487       -0.4097169286
       6
 i =      22, E =      -24.8058082203
  C        -3.9505575814        0.9708162345       -0.2958771916
  H        -3.7999661172        2.0425163721       -0.2126190288
  H        -3.7831340014        0.3557291671        0.5802129041
  H        -3.8687292275        0.5121697127       -1.2746987740
 Cl        -6.0098544494        0.9965902902       -0.1988244686
 Cl        -1.5379348654        0.9422595245       -0.4097453769
       6
 i =      23, E =      -24.8058254848
  C        -3.9508814778        0.9716812839       -0.2961524943
  H        -3.8000114411        2.0419868170       -0.2126437996
  H        -3.7830619027        0.3554700216        0.5805371836
  H        -3.8686961436        0.5121158509       -1.2747129454
 Cl        -6.0097390111        0.9965702051       -0.1988265644
 Cl        -1.5377859152        0.9422571181       -0.4097533323
       6
 i =      24, E =      -24.8058683458
  C        -3.9517051927        0.9711998123       -0.2956059393
  H        -3.7999300965        2.0421901106       -0.2126549485
  H        -3.7830721688        0.3557548849        0.5801403887
  H        -3.8686359118        0.5121109819       -1.2747992484
 Cl        -6.0094377723        0.9965751300       -0.1988551119
 Cl        -1.5373939343        0.9422503666       -0.4097771314
       6
 i =      25, E =      -24.8058844275
  C        -3.9520272678        0.9716316557       -0.2960643650
  H        -3.7999410294        2.0419314852       -0.2126511748
  H        -3.7830023648        0.3555461313        0.5804309916
  H        -3.8686236385        0.5121597308       -1.2746296736
 Cl        -6.0093287643        0.9965642734       -0.1988521509
 Cl        -1.5372518257        0.9422480076       -0.4097856268
       6
 i =      26, E =      -24.8059105125
  C        -3.9525328785        0.9716673049       -0.2960350754
  H        -3.7999142454        2.0418730436       -0.2126562585
  H        -3.7829732982        0.3555640441        0.5804032171
  H        -3.8685903020        0.5121724022       -1.2746007805
 Cl        -6.0091480666        0.9965604892       -0.1988633127
 Cl        -1.5370157380        0.9422439954       -0.4097998066
       6
 i =      27, E =      -24.8059555223
  C        -3.9533943209        0.9712509649       -0.2955567569
  H        -3.7998347261        2.0420380220       -0.2126655119
  H        -3.7829741558        0.3558183552        0.5800504168
  H        -3.8685284050        0.5121727325       -1.2746650581
 Cl        -6.0088370799        0.9965641944       -0.1988908578
 Cl        -1.5366055207        0.9422370063       -0.4098242639
       6
 i =      28, E =      -24.8059629711
  C        -3.9535398330        0.9714474109       -0.2957636140
  H        -3.7998400048        2.0419198252       -0.2126636640
  H        -3.7829424946        0.3557244179        0.5801813499
  H        -3.8685230083        0.5121943646       -1.2745889668
 Cl        -6.0087879590        0.9965592622       -0.1988892583
 Cl        -1.5365408797        0.9422359942       -0.4098278798
       6
 i =      29, E =      -24.8059988405
  C        -3.9542481682        0.9718364308       -0.2961155919
  H        -3.7998264352        2.0416519681       -0.2126642324
  H        -3.7828595102        0.3555702999        0.5803943885
  H        -3.8684842896        0.5122447471       -1.2744248338
 Cl        -6.0085410526        0.9965470927       -0.1988954957
 Cl        -1.5362145855        0.9422307347       -0.4098462744
       6
 i =      30, E =      -24.8060125499
  C        -3.9544947731        0.9715191552       -0.2957513329
  H        -3.7997898209        2.0418066984       -0.2126701543
  H        -3.7828848258        0.3557486967        0.5801456065
  H        -3.8684623420        0.5122256969       -1.2745150316
 Cl        -6.0084495464        0.9965523688       -0.1989079779
 Cl        -1.5360926996        0.9422286568       -0.4098531509
       6
 i =      31, E =      -24.8060500584
  C        -3.9552288858        0.9717399497       -0.2960044728
  H        -3.7997614286        2.0416310861       -0.2126700618
  H        -3.7828108403        0.3556583599        0.5802740521
  H        -3.8684214007        0.5122826953       -1.2743609082
 Cl        -6.0081950847        0.9965456228       -0.1989184257
 Cl        -1.5357562859        0.9422235580       -0.4098722286
       6
 i =      32, E =      -24.8060627533
  C        -3.9554593902        0.9715546811       -0.2957301288
  H        -3.7997357376        2.0417121220       -0.2126767943
  H        -3.7828263983        0.3557827906        0.5800971588
  H        -3.8684009693        0.5122622818       -1.2744355175
 Cl        -6.0081097787        0.9965477968       -0.1989283101
 Cl        -1.5356416350        0.9422215994       -0.4098784539
       6
 i =      33, E =      -24.8060802354
  C        -3.9557935640        0.9715520970       -0.2957067655
  H        -3.7997162389        2.0416879436       -0.2126791325
  H        -3.7828088475        0.3558026688        0.5800689558
  H        -3.8683798594        0.5122735318       -1.2744127334
 Cl        -6.0079916197        0.9965459745       -0.1989351486
 Cl        -1.5354837536        0.9422190555       -0.4098872229
       6
 i =      34, E =      -24.8060984334
  C        -3.9561452849        0.9716375849       -0.2958066870
  H        -3.7997020822        2.0416159835       -0.2126789017
  H        -3.7827781576        0.3557708962        0.5801140514
  H        -3.8683610609        0.5122986986       -1.2743451022
 Cl        -6.0078689461        0.9965417453       -0.1989390793
 Cl        -1.5353183353        0.9422163624       -0.4098963289
       6
 i =      35, E =      -24.8061318610
  C        -3.9567756230        0.9715126289       -0.2955788366
  H        -3.7996572232        2.0416335290       -0.2126877788
  H        -3.7827641989        0.3558848688        0.5799511877
  H        -3.8683165045        0.5122986019       -1.2743686076
 Cl        -6.0076447514        0.9965402668       -0.1989551698
 Cl        -1.5350155421        0.9422113753       -0.4099128439
       6
 i =      36, E =      -24.8061375215
  C        -3.9568860548        0.9715743242       -0.2956640645
  H        -3.7996551125        2.0415924144       -0.2126865058
  H        -3.7827488172        0.3558526894        0.5799971888
  H        -3.8683119624        0.5123129334       -1.2743277668
 Cl        -6.0076071687        0.9965383224       -0.1989552745
 Cl        -1.5349647251        0.9422105869       -0.4099156263
       6
 i =      37, E =      -24.8062021232
  C        -3.9581327250        0.9718509471       -0.2959883992
  H        -3.7996026078        2.0413485326       -0.2126874206
  H        -3.7826404203        0.3557536761        0.5801381208
  H        -3.8682439907        0.5124015621       -1.2740961966
 Cl        -6.0071748135        0.9965252262       -0.1989705807
 Cl        -1.5343792564        0.9422013262       -0.4099475739
       6
 i =      38, E =      -24.8062102239
  C        -3.9582680741        0.9716285268       -0.2956500936
  H        -3.7995794431        2.0414550084       -0.2126957498
  H        -3.7826675217        0.3558995565        0.5799300820
  H        -3.8682266232        0.5123688539       -1.2742045851
 Cl        -6.0071235295        0.9965292118       -0.1989804998
 Cl        -1.5343086216        0.9422001130       -0.4099512041
       6
 i =      39, E =      -24.8062745044
  C        -3.9594833034        0.9716327893       -0.2955813655
  H        -3.7995093246        2.0413538385       -0.2127058525
  H        -3.7825984864        0.3559648201        0.5798372655
  H        -3.8681498989        0.5124142360       -1.2741133851
 Cl        -6.0067016938        0.9965242571       -0.1990061634
 Cl        -1.5337311020        0.9421913292       -0.4099825494
       6
 i =      40, E =      -24.8062821014
  C        -3.9596264614        0.9716455760       -0.2955847952
  H        -3.7995022993        2.0413356364       -0.2127071238
  H        -3.7825901908        0.3559668643        0.5798332635
  H        -3.8681413668        0.5124200660       -1.2740990940
 Cl        -6.0066517390        0.9965228976       -0.1990081423
 Cl        -1.5336617519        0.9421902300       -0.4099861587
       6
 i =      41, E =      -24.8062869072
  C        -3.9597168127        0.9716465637       -0.2955799666
  H        -3.7994972861        2.0413280642       -0.2127079645
  H        -3.7825856748        0.3559715985        0.5798260652
  H        -3.8681357883        0.5124232976       -1.2740921556
 Cl        -6.0066202608        0.9965222141       -0.1990095791
 Cl        -1.5336179864        0.9421895321       -0.4099884498
       6
 i =      42, E =      -24.8062890898
  C        -3.9597578323        0.9716467295       -0.2955775864
  H        -3.7994949998        2.0413247450       -0.2127083356
  H        -3.7825836277        0.3559738717        0.5798226785
  H        -3.8681332653        0.5124247822       -1.2740890454
 Cl        -6.0066059710        0.9965219256       -0.1990102641
 Cl        -1.5335981131        0.9421892163       -0.4099894976
