       6
 i =       0, E =      -24.7970638038
  C        -3.8246716961        0.9699542747       -0.3019898247
  H        -3.8079938849        2.0043524367       -0.2154595747
  H        -3.7917705783        0.3773172477        0.5496298802
  H        -3.8743109010        0.5282188775       -1.2403687014
 Cl        -6.1574682194        0.9984213021       -0.1917113764
 Cl        -1.4919034603        0.9417912099       -0.4117494005
       6
 i =       1, E =      -24.8006068513
  C        -3.8246810272        0.9699379091       -0.3022629970
  H        -3.8071039644        2.0604109930       -0.2107888729
  H        -3.7899774434        0.3451150706        0.5958643781
  H        -3.8769891271        0.5043960151       -1.2909678110
 Cl        -6.1250906858        0.9980234212       -0.1932561141
 Cl        -1.5242865798        0.9421720668       -0.4102371048
       6
 i =       2, E =      -24.8016407338
  C        -3.8290429385        0.9700897111       -0.3011734677
  H        -3.8078504692        2.0317496447       -0.2132374117
  H        -3.7911589199        0.3616766033        0.5719996782
  H        -3.8759104450        0.5164314334       -1.2654341660
 Cl        -6.0892777190        0.9975814994       -0.1949788857
 Cl        -1.5578054784        0.9425633794       -0.4086866538
       6
 i =       3, E =      -24.8020681092
  C        -3.8330016217        0.9699297083       -0.3031223796
  H        -3.8074135236        2.0529354986       -0.2113810739
  H        -3.7903505870        0.3491429160        0.5901025972
  H        -3.8767604633        0.5079912766       -1.2832918293
 Cl        -6.0752959798        0.9974100401       -0.1956310736
 Cl        -1.5686813876        0.9426886037       -0.4081655608
       6
 i =       4, E =      -24.8021916676
  C        -3.8356999142        0.9704700082       -0.2980016708
  H        -3.8074420360        2.0424992825       -0.2125009795
  H        -3.7905949287        0.3559973037        0.5799666944
  H        -3.8762423449        0.5110841324       -1.2769159141
 Cl        -6.0650255382        0.9972761424       -0.1961826711
 Cl        -1.5763349236        0.9427691069       -0.4078625096
       6
 i =       5, E =      -24.8022399959
  C        -3.8374334165        0.9698889839       -0.3039945299
  H        -3.8071917527        2.0459805019       -0.2119338354
  H        -3.7902018832        0.3529158070        0.5847052181
  H        -3.8760685193        0.5112694341       -1.2762947857
 Cl        -6.0622436685        0.9972473337       -0.1962531858
 Cl        -1.5780752022        0.9427923358       -0.4077318405
       6
 i =       6, E =      -24.8022584300
  C        -3.8387246145        0.9704551478       -0.2985208269
  H        -3.8070582558        2.0461327044       -0.2121722659
  H        -3.7901394242        0.3537903181        0.5831583098
  H        -3.8760651086        0.5097061464       -1.2798131952
 Cl        -6.0594303717        0.9972052250       -0.1964515406
 Cl        -1.5796590696        0.9428031191       -0.4077099314
       6
 i =       7, E =      -24.8022645888
  C        -3.8378151147        0.9703166121       -0.2996323616
  H        -3.8070524704        2.0464989931       -0.2120857321
  H        -3.7901085090        0.3534069676        0.5837742552
  H        -3.8760598444        0.5098512155       -1.2794621684
 Cl        -6.0585785491        0.9971950961       -0.1964831905
 Cl        -1.5813024915        0.9428217599       -0.4076277944
       6
 i =       8, E =      -24.8022622139
  C        -3.8365393958        0.9701878926       -0.3007883003
  H        -3.8071122061        2.0465950106       -0.2120206855
  H        -3.7901491068        0.3531625423        0.5841925518
  H        -3.8761017758        0.5101139416       -1.2788610093
 Cl        -6.0587139355        0.9971974262       -0.1964661033
 Cl        -1.5822289808        0.9428329282       -0.4075768219
       6
 i =       9, E =      -24.8022091805
  C        -3.8231142389        0.9696065658       -0.3060144808
  H        -3.8077783380        2.0469617446       -0.2117166428
  H        -3.7907309169        0.3521455493        0.5859846607
  H        -3.8766818507        0.5112147013       -1.2763287699
 Cl        -6.0600595641        0.9972117388       -0.1963696321
 Cl        -1.5918174715        0.9429410785       -0.4071067812
       6
 i =      10, E =      -24.8022345414
  C        -3.8233925610        0.9700807331       -0.3010551604
  H        -3.8077719478        2.0466126170       -0.2119803460
  H        -3.7907779497        0.3532369293        0.5841445301
  H        -3.8768069295        0.5100151975       -1.2790608377
 Cl        -6.0598215023        0.9972034143       -0.1964298541
 Cl        -1.5916087009        0.9429324521       -0.4071701097
       6
 i =      11, E =      -24.8022151629
  C        -3.8248116015        0.9696444012       -0.3053863081
  H        -3.8077042669        2.0473158846       -0.2117089876
  H        -3.7906609496        0.3520654287        0.5860791533
  H        -3.8766322644        0.5109330113       -1.2769507093
 Cl        -6.0592283337        0.9971967049       -0.1964225850
 Cl        -1.5911367282        0.9429258438       -0.4071625981
       6
 i =      12, E =      -24.8022340577
  C        -3.8247826762        0.9701052493       -0.3010248669
  H        -3.8077121795        2.0467828514       -0.2119602429
  H        -3.7907210526        0.3531305122        0.5843069231
  H        -3.8767387525        0.5099529650       -1.2791917646
 Cl        -6.0591409977        0.9971902549       -0.1964709545
 Cl        -1.5910783075        0.9429194395       -0.4072111374
       6
 i =      13, E =      -24.8022275197
  C        -3.8250755102        0.9697554222       -0.3041021594
  H        -3.8076941138        2.0470629827       -0.2117857296
  H        -3.7906698299        0.3524506383        0.5854652954
  H        -3.8766374648        0.5107030513       -1.2774882237
 Cl        -6.0590526245        0.9971899801       -0.1964505247
 Cl        -1.5910442867        0.9429191960       -0.4071907075
       6
 i =      14, E =      -24.8022341763
  C        -3.8250566047        0.9698982530       -0.3028665715
  H        -3.8076966902        2.0469277790       -0.2118551370
  H        -3.7906867569        0.3527365993        0.5849861079
  H        -3.8766691603        0.5104135662       -1.2781475105
 Cl        -6.0590348541        0.9971879504       -0.1964642741
 Cl        -1.5910297519        0.9429171226       -0.4072046649
       6
 i =      15, E =      -24.8022289875
  C        -3.8249554116        0.9702183535       -0.3000152857
  H        -3.8077064814        2.0466286978       -0.2120116156
  H        -3.7907302530        0.3533966815        0.5838866839
  H        -3.8767448128        0.5097442908       -1.2796743790
 Cl        -6.0590119062        0.9971821460       -0.1964980500
 Cl        -1.5910249426        0.9429111008       -0.4072394042
       6
 i =      16, E =      -24.8022352473
  C        -3.8251267315        0.9699541743       -0.3024202619
  H        -3.8076935505        2.0468992572       -0.2118734958
  H        -3.7906894365        0.3528289743        0.5848375593
  H        -3.8766737491        0.5103028824       -1.2783987992
 Cl        -6.0589858742        0.9971835452       -0.1964777095
 Cl        -1.5910044602        0.9429124368       -0.4072193436
       6
 i =      17, E =      -24.8022347747
  C        -3.8250514688        0.9700730244       -0.3012524746
  H        -3.8076997841        2.0467676129       -0.2119371556
  H        -3.7907101159        0.3531127018        0.5843715091
  H        -3.8767054327        0.5100378629       -1.2790066897
 Cl        -6.0589894560        0.9971806491       -0.1964925438
 Cl        -1.5910175488        0.9429094191       -0.4072346961
       6
 i =      18, E =      -24.8022355869
  C        -3.8250975499        0.9699858052       -0.3021146258
  H        -3.8076961860        2.0468614713       -0.2118869480
  H        -3.7906964309        0.3529074163        0.5847163579
  H        -3.8766807949        0.5102366602       -1.2785521632
 Cl        -6.0589860290        0.9971806048       -0.1964861244
 Cl        -1.5910168159        0.9429093124       -0.4072285472
       6
 i =      19, E =      -24.8022354139
  C        -3.8251028684        0.9699633641       -0.3023015858
  H        -3.8076960144        2.0468814859       -0.2118731710
  H        -3.7906946466        0.3528672851        0.5847907246
  H        -3.8766741265        0.5102830761       -1.2784476419
 Cl        -6.0589832909        0.9971787472       -0.1964886713
 Cl        -1.5910228618        0.9429073120       -0.4072317052
       6
 i =      20, E =      -24.8022346279
  C        -3.8250278959        0.9700874967       -0.3011926805
  H        -3.8077019033        2.0467607633       -0.2119328517
  H        -3.7907137376        0.3531280901        0.5843599313
  H        -3.8767054218        0.5100252650       -1.2790361632
 Cl        -6.0589917980        0.9971756126       -0.1965033520
 Cl        -1.5910330524        0.9429040426       -0.4072469345
       6
 i =      21, E =      -24.8022354458
  C        -3.8250529523        0.9700401314       -0.3016204874
  H        -3.8076999125        2.0468092838       -0.2119079639
  H        -3.7907067823        0.3530273505        0.5845293113
  H        -3.8766931353        0.5101246679       -1.2788092914
 Cl        -6.0589897511        0.9971757124       -0.1964999801
 Cl        -1.5910312753        0.9429041243       -0.4072436389
       6
 i =      22, E =      -24.8022346232
  C        -3.8250914223        0.9699192490       -0.3026975929
  H        -3.8076967095        2.0469334100       -0.2118468723
  H        -3.7906910255        0.3527707379        0.5849593227
  H        -3.8766630089        0.5103803380       -1.2782297100
 Cl        -6.0589942697        0.9971746119       -0.1964965606
 Cl        -1.5910373732        0.9429029236       -0.4072406374
       6
 i =      23, E =      -24.8022356244
  C        -3.8250606641        0.9700136128       -0.3018668769
  H        -3.8076994701        2.0468386238       -0.2118927102
  H        -3.7907035503        0.3529672813        0.5846328205
  H        -3.8766853024        0.5101873420       -1.2786692653
 Cl        -6.0589907947        0.9971730625       -0.1965059171
 Cl        -1.5910340274        0.9429013478       -0.4072501016
       6
 i =      24, E =      -24.8022355987
  C        -3.8250539035        0.9699881710       -0.3020796433
  H        -3.8076995632        2.0468656180       -0.2118792005
  H        -3.7907012198        0.3529163319        0.5847208283
  H        -3.8766796021        0.5102399174       -1.2785510975
 Cl        -6.0589978623        0.9971715057       -0.1965092429
 Cl        -1.5910416582        0.9428997262       -0.4072536947
       6
 i =      25, E =      -24.8022356338
  C        -3.8250445764        0.9700075746       -0.3019212192
  H        -3.8077002988        2.0468465402       -0.2118865304
  H        -3.7907038640        0.3529548880        0.5846590831
  H        -3.8766840408        0.5102024981       -1.2786354954
 Cl        -6.0589985705        0.9971707842       -0.1965116784
 Cl        -1.5910424585        0.9428989852       -0.4072562102
       6
 i =      26, E =      -24.8022356289
  C        -3.8250370529        0.9700121574       -0.3018830667
  H        -3.8077007669        2.0468423951       -0.2118865932
  H        -3.7907048719        0.3529651996        0.5846454232
  H        -3.8766851993        0.5101937719       -1.2786549175
 Cl        -6.0590009089        0.9971697896       -0.1965141123
 Cl        -1.5910450091        0.9428979566       -0.4072587840
       6
 i =      27, E =      -24.8022356032
  C        -3.8250406563        0.9699906057       -0.3020711388
  H        -3.8077002244        2.0468642960       -0.2118713085
  H        -3.7907023515        0.3529247678        0.5847206832
  H        -3.8766800897        0.5102365142       -1.2785556551
 Cl        -6.0590031282        0.9971684824       -0.1965148864
 Cl        -1.5910473589        0.9428966042       -0.4072597450
       6
 i =      28, E =      -24.8022356283
  C        -3.8250371652        0.9699993816       -0.3019968585
  H        -3.8077005055        2.0468556827       -0.2118751144
  H        -3.7907035065        0.3529424593        0.5846918114
  H        -3.8766820986        0.5102193262       -1.2785947590
 Cl        -6.0590031490        0.9971681521       -0.1965161243
 Cl        -1.5910473842        0.9428962683       -0.4072610057
       6
 i =      29, E =      -24.8022356134
  C        -3.8250273656        0.9700193210       -0.3018294707
  H        -3.8077012776        2.0468363390       -0.2118821866
  H        -3.7907063113        0.3529835800        0.5846272640
  H        -3.8766867225        0.5101804028       -1.2786828807
 Cl        -6.0590039338        0.9971667693       -0.1965198914
 Cl        -1.5910481982        0.9428948582       -0.4072648851
       6
 i =      30, E =      -24.8022356340
  C        -3.8250335743        0.9700052757       -0.3019508387
  H        -3.8077007273        2.0468505853       -0.2118741831
  H        -3.7907043928        0.3529558976        0.5846754187
  H        -3.8766832866        0.5102084682       -1.2786185567
 Cl        -6.0590037807        0.9971664814       -0.1965194316
 Cl        -1.5910480473        0.9428945621       -0.4072644592
       6
 i =      31, E =      -24.8022356330
  C        -3.8250299172        0.9700103629       -0.3019102887
  H        -3.8077009562        2.0468462896       -0.2118743937
  H        -3.7907051488        0.3529666764        0.5846610767
  H        -3.8766843564        0.5101994763       -1.2786388455
 Cl        -6.0590045730        0.9971652029       -0.1965222419
 Cl        -1.5910488574        0.9428932622       -0.4072673576
       6
 i =      32, E =      -24.8022356343
  C        -3.8250313864        0.9700071242       -0.3019393461
  H        -3.8077008459        2.0468499727       -0.2118723056
  H        -3.7907046996        0.3529598321        0.5846733238
  H        -3.8766834884        0.5102066957       -1.2786225793
 Cl        -6.0590045532        0.9971647960       -0.1965230020
 Cl        -1.5910488355        0.9428928496       -0.4072681414
       6
 i =      33, E =      -24.8022356343
  C        -3.8250311812        0.9700068772       -0.3019429137
  H        -3.8077008385        2.0468506268       -0.2118712064
  H        -3.7907046695        0.3529594652        0.5846755208
  H        -3.8766833458        0.5102077899       -1.2786200495
 Cl        -6.0590047448        0.9971642329       -0.1965241144
 Cl        -1.5910490292        0.9428922783       -0.4072692872
       6
 i =      34, E =      -24.8022356343
  C        -3.8250302523        0.9700082300       -0.3019326758
  H        -3.8077008585        2.0468496352       -0.2118708605
  H        -3.7907048270        0.3529624399        0.5846721916
  H        -3.8766835825        0.5102055941       -1.2786249777
 Cl        -6.0590050016        0.9971636661       -0.1965252643
 Cl        -1.5910492871        0.9428917050       -0.4072704640
       6
 i =      35, E =      -24.8022356341
  C        -3.8250302770        0.9700069904       -0.3019464878
  H        -3.8077007401        2.0468514258       -0.2118679444
  H        -3.7907046068        0.3529607617        0.5846786622
  H        -3.8766831343        0.5102087278       -1.2786172900
 Cl        -6.0590053823        0.9971626685       -0.1965268719
 Cl        -1.5910496684        0.9428906960       -0.4072721185
       6
 i =      36, E =      -24.8022356343
  C        -3.8250298349        0.9700078762       -0.3019391045
  H        -3.8077007732        2.0468507740       -0.2118684635
  H        -3.7907047108        0.3529622241        0.5846761452
  H        -3.8766832998        0.5102074019       -1.2786206366
 Cl        -6.0590054521        0.9971624840       -0.1965273693
 Cl        -1.5910497382        0.9428905101       -0.4072726220
       6
 i =      37, E =      -24.8022356343
  C        -3.8250297100        0.9700095779       -0.3019296051
  H        -3.8077006776        2.0468498797       -0.2118642386
  H        -3.7907048522        0.3529680871        0.5846743065
  H        -3.8766835223        0.5102046353       -1.2786252809
 Cl        -6.0590053879        0.9971605400       -0.1965309573
 Cl        -1.5910496590        0.9428885502       -0.4072762752
       6
 i =      38, E =      -24.8022356344
  C        -3.8250300079        0.9700091088       -0.3019343477
  H        -3.8077006567        2.0468506249       -0.2118640662
  H        -3.7907047613        0.3529667435        0.5846765323
  H        -3.8766833534        0.5102061136       -1.2786222789
 Cl        -6.0590053793        0.9971603353       -0.1965312837
 Cl        -1.5910496504        0.9428883443       -0.4072766064
       6
 i =      39, E =      -24.8022356344
  C        -3.8250295679        0.9700096290       -0.3019346370
  H        -3.8077006686        2.0468523452       -0.2118650049
  H        -3.7907046475        0.3529647490        0.5846795415
  H        -3.8766830449        0.5102093871       -1.2786180536
 Cl        -6.0590058006        0.9971585799       -0.1965342688
 Cl        -1.5910500795        0.9428865801       -0.4072796278
       6
 i =      40, E =      -24.8022356344
  C        -3.8250291820        0.9700099993       -0.3019320996
  H        -3.8077006526        2.0468521463       -0.2118647689
  H        -3.7907046610        0.3529654891        0.5846789306
  H        -3.8766830866        0.5102089261       -1.2786190483
 Cl        -6.0590059728        0.9971583549       -0.1965348516
 Cl        -1.5910502541        0.9428863546       -0.4072802127
       6
 i =      41, E =      -24.8022356344
  C        -3.8250291113        0.9700100435       -0.3019320397
  H        -3.8077006378        2.0468521916       -0.2118644911
  H        -3.7907046492        0.3529656470        0.5846791280
  H        -3.8766830762        0.5102089591       -1.2786189058
 Cl        -6.0590060264        0.9971582149       -0.1965351898
 Cl        -1.5910503080        0.9428862142       -0.4072805522
       6
 i =      42, E =      -24.8022356344
  C        -3.8250291253        0.9700100592       -0.3019320964
  H        -3.8077006317        2.0468522146       -0.2118643428
  H        -3.7907046446        0.3529657219        0.5846792402
  H        -3.8766830719        0.5102089773       -1.2786188195
 Cl        -6.0590060272        0.9971581490       -0.1965353345
 Cl        -1.5910503084        0.9428861483       -0.4072806974
