       6
 i =       0, E =      -24.7992637958
  C        -3.7172094331        0.9686266841       -0.3070561104
  H        -3.7868568768        2.0040854202       -0.2164621794
  H        -3.7706775063        0.3770377955        0.5486302694
  H        -3.8530878972        0.5279459957       -1.2413620384
 Cl        -6.1765755095        0.9986591694       -0.1908076427
 Cl        -1.5110060228        0.9420263956       -0.4108516231
       6
 i =       1, E =      -24.8025796508
  C        -3.7254552163        0.9687422091       -0.3069223821
  H        -3.8019076891        2.0564411363       -0.2113645955
  H        -3.7848640839        0.3472748926        0.5924077446
  H        -3.8714852039        0.5059768206       -1.2877060879
 Cl        -6.1508355124        0.9983391549       -0.1920387615
 Cl        -1.5513871895        0.9424967757       -0.4089584125
       6
 i =       2, E =      -24.8033079922
  C        -3.7442137433        0.9689957912       -0.3052475349
  H        -3.8049481547        2.0322837826       -0.2133224935
  H        -3.7882282969        0.3613320938        0.5723121436
  H        -3.8730471374        0.5161923296       -1.2660026113
 Cl        -6.1241156256        0.9980078340       -0.1933222854
 Cl        -1.5937390473        0.9429934317       -0.4070015340
       6
 i =       3, E =      -24.8035674936
  C        -3.7447914183        0.9690332217       -0.3070588609
  H        -3.8112636773        2.0491840597       -0.2115272098
  H        -3.7943071712        0.3513197826        0.5872037898
  H        -3.8802951028        0.5095308509       -1.2799339813
 Cl        -6.1084422001        0.9978129070       -0.1940720393
 Cl        -1.6013455753        0.9430777355       -0.4066226948
       6
 i =       4, E =      -24.8035793414
  C        -3.7491258496        0.9689230825       -0.3027160454
  H        -3.8107585462        2.0429646572       -0.2122767232
  H        -3.7937912081        0.3559313419        0.5803390939
  H        -3.8796889145        0.5112915311       -1.2764212746
 Cl        -6.1008379884        0.9977179665       -0.1944543905
 Cl        -1.6116397194        0.9431980545       -0.4062270514
       6
 i =       5, E =      -24.8035794334
  C        -3.7498278235        0.9693176929       -0.3074661907
  H        -3.8114290449        2.0440383962       -0.2119236046
  H        -3.7945574562        0.3539891688        0.5833879877
  H        -3.8800978209        0.5118094724       -1.2750397897
 Cl        -6.0979830536        0.9976794297       -0.1945837592
 Cl        -1.6132990522        0.9432095275       -0.4060672534
       6
 i =       6, E =      -24.8035700412
  C        -3.7501840360        0.9686949671       -0.3036274352
  H        -3.8118210764        2.0450745916       -0.2119958525
  H        -3.7948246743        0.3546642326        0.5823010167
  H        -3.8807882503        0.5107348071       -1.2775494969
 Cl        -6.0955737938        0.9976509523       -0.1947128616
 Cl        -1.6151381002        0.9432384618       -0.4060544052
       6
 i =       7, E =      -24.8035662573
  C        -3.7505654640        0.9688914865       -0.3042518325
  H        -3.8119756300        2.0451078507       -0.2119501694
  H        -3.7949973527        0.3543912112        0.5827275857
  H        -3.8809111348        0.5107957524       -1.2773633327
 Cl        -6.0942329014        0.9976325167       -0.1947792284
 Cl        -1.6162464340        0.9432467502       -0.4059938005
       6
 i =       8, E =      -24.8035703562
  C        -3.7505882013        0.9690460848       -0.3049789717
  H        -3.8120154985        2.0450691382       -0.2119144229
  H        -3.7950580031        0.3541564079        0.5830965672
  H        -3.8809067368        0.5109207822       -1.2770465594
 Cl        -6.0938725922        0.9976269015       -0.1947964368
 Cl        -1.6166524625        0.9432483291       -0.4059631903
       6
 i =       9, E =      -24.8036062408
  C        -3.7495776000        0.9694308179       -0.3084771770
  H        -3.8125171946        2.0451514955       -0.2116989443
  H        -3.7956342499        0.3530972333        0.5848288823
  H        -3.8811875422        0.5115429204       -1.2755108547
 Cl        -6.0905234228        0.9975778071       -0.1949662697
 Cl        -1.6213102705        0.9432882674       -0.4057004924
       6
 i =      10, E =      -24.8036851941
  C        -3.7475933452        0.9688589282       -0.3050760883
  H        -3.8126314159        2.0452661357       -0.2118508062
  H        -3.7956483716        0.3541683987        0.5831594314
  H        -3.8815273110        0.5109019238       -1.2770861166
 Cl        -6.0912063818        0.9975873772       -0.1949436309
 Cl        -1.6220448866        0.9433045348       -0.4057322952
       6
 i =      11, E =      -24.8038840402
  C        -3.7421052748        0.9698551528       -0.3074588817
  H        -3.8129218972        2.0445580498       -0.2117827770
  H        -3.7960282305        0.3534784000        0.5842210793
  H        -3.8817173113        0.5112777886       -1.2760730490
 Cl        -6.0933377455        0.9976057791       -0.1948453335
 Cl        -1.6242453805        0.9433083961       -0.4056045014
       6
 i =      12, E =      -24.8039176024
  C        -3.7412988100        0.9685267463       -0.3058279461
  H        -3.8129998991        2.0452164990       -0.2118070089
  H        -3.7959953026        0.3542506844        0.5831202567
  H        -3.8818532117        0.5111435690       -1.2765689975
 Cl        -6.0936541371        0.9976129144       -0.1948322450
 Cl        -1.6245207694        0.9433327282       -0.4056291127
       6
 i =      13, E =      -24.8039883617
  C        -3.7393682905        0.9702443134       -0.3057790222
  H        -3.8130535986        2.0440245916       -0.2119014327
  H        -3.7961548354        0.3539711260        0.5834124134
  H        -3.8819844013        0.5109188510       -1.2768735864
 Cl        -6.0944557242        0.9976149532       -0.1948018225
 Cl        -1.6252351593        0.9433084215       -0.4056049111
       6
 i =      14, E =      -24.8040040470
  C        -3.7390586345        0.9693772546       -0.3061146434
  H        -3.8131024809        2.0445438651       -0.2118427969
  H        -3.7961608542        0.3540948402        0.5833111195
  H        -3.8819645839        0.5111231428       -1.2765126465
 Cl        -6.0945952399        0.9976187096       -0.1947939242
 Cl        -1.6253637314        0.9433243627       -0.4055957758
       6
 i =      15, E =      -24.8040669414
  C        -3.7374319437        0.9678040302       -0.3062386946
  H        -3.8132517376        2.0454015152       -0.2117636987
  H        -3.7962221320        0.3544887606        0.5828641878
  H        -3.8820266020        0.5114021924       -1.2760742870
 Cl        -6.0952846921        0.9976293296       -0.1947628090
 Cl        -1.6259959042        0.9433559368       -0.4055748997
       6
 i =      16, E =      -24.8040941030
  C        -3.7367422342        0.9694338582       -0.3057089045
  H        -3.8132348016        2.0443610516       -0.2118712166
  H        -3.7962924254        0.3542780186        0.5830350795
  H        -3.8821329356        0.5110521573       -1.2766769330
 Cl        -6.0955580223        0.9976273085       -0.1947557035
 Cl        -1.6262455663        0.9433292820       -0.4055728546
       6
 i =      17, E =      -24.8041390479
  C        -3.7356481893        0.9679710984       -0.3070874200
  H        -3.8133579817        2.0452324333       -0.2117318377
  H        -3.7963607694        0.3543033872        0.5831708444
  H        -3.8820712510        0.5115809664       -1.2756377940
 Cl        -6.0960587414        0.9976354316       -0.1947311362
 Cl        -1.6266974905        0.9433582134       -0.4055337347
       6
 i =      18, E =      -24.8041653604
  C        -3.7349726717        0.9693025605       -0.3057005090
  H        -3.8133448021        2.0443307642       -0.2118701188
  H        -3.7963957860        0.3543845135        0.5828978642
  H        -3.8822379147        0.5110929540       -1.2766039868
 Cl        -6.0963120266        0.9976343330       -0.1947252934
 Cl        -1.6269275520        0.9433363587       -0.4055492074
       6
 i =      19, E =      -24.8042216126
  C        -3.7336154282        0.9692519987       -0.3059824225
  H        -3.8134298022        2.0442899171       -0.2118565112
  H        -3.7964857328        0.3543801994        0.5829278746
  H        -3.8822971403        0.5111786318       -1.2764138836
 Cl        -6.0968965255        0.9976395049       -0.1947015547
 Cl        -1.6274550681        0.9433410926       -0.4055252753
       6
 i =      20, E =      -24.8042714960
  C        -3.7324200181        0.9679359091       -0.3071928581
  H        -3.8135565915        2.0450511838       -0.2117330199
  H        -3.7965609783        0.3544249285        0.5830192127
  H        -3.8822564771        0.5116536342       -1.2754817949
 Cl        -6.0974445771        0.9976472618       -0.1946761106
 Cl        -1.6279383943        0.9433683935       -0.4054873274
       6
 i =      21, E =      -24.8042838920
  C        -3.7321468333        0.9685468197       -0.3065777998
  H        -3.8135475699        2.0446420842       -0.2117951875
  H        -3.7965754056        0.3544543102        0.5829061404
  H        -3.8823306214        0.5114333006       -1.2759164685
 Cl        -6.0975467578        0.9976467377       -0.1946738957
 Cl        -1.6280295850        0.9433580552       -0.4054946996
       6
 i =      22, E =      -24.8043341879
  C        -3.7308204528        0.9697918712       -0.3055397335
  H        -3.8135774300        2.0437672074       -0.2119122530
  H        -3.7966595074        0.3544930597        0.5827210655
  H        -3.8825122926        0.5110413808       -1.2766700192
 Cl        -6.0980936056        0.9976484603       -0.1946560303
 Cl        -1.6285120606        0.9433393103       -0.4054950075
       6
 i =      23, E =      -24.8043546201
  C        -3.7304642852        0.9686110750       -0.3067327311
  H        -3.8136501057        2.0445063766       -0.2117948271
  H        -3.7966864983        0.3544698441        0.5828946487
  H        -3.8824219591        0.5114795059       -1.2758046495
 Cl        -6.0982778932        0.9976525615       -0.1946457949
 Cl        -1.6286743651        0.9433619237       -0.4054686354
       6
 i =      24, E =      -24.8043970126
  C        -3.7293682536        0.9694294791       -0.3056424210
  H        -3.8136792562        2.0438911787       -0.2118949050
  H        -3.7967408990        0.3546142799        0.5825812076
  H        -3.8825877982        0.5111417285       -1.2764893852
 Cl        -6.0987284756        0.9976545260       -0.1946316870
 Cl        -1.6290698678        0.9433500875       -0.4054748249
       6
 i =      25, E =      -24.8044151739
  C        -3.7290384575        0.9686764472       -0.3067125031
  H        -3.8137344503        2.0443714406       -0.2118038052
  H        -3.7967755253        0.3545228925        0.5828184393
  H        -3.8825116676        0.5114881521       -1.2757803841
 Cl        -6.0988973644        0.9976574212       -0.1946232789
 Cl        -1.6292169661        0.9433649246       -0.4054504892
       6
 i =      26, E =      -24.8044420846
  C        -3.7284108351        0.9686409848       -0.3067540206
  H        -3.8137741459        2.0443534630       -0.2118018074
  H        -3.7968143639        0.3545477341        0.5827898434
  H        -3.8825465609        0.5115119887       -1.2757312751
 Cl        -6.0991715219        0.9976597352       -0.1946131221
 Cl        -1.6294567652        0.9433673694       -0.4054416507
       6
 i =      27, E =      -24.8044872526
  C        -3.7272758218        0.9693688124       -0.3057884032
  H        -3.8138093086        2.0437978886       -0.2118894314
  H        -3.7968722670        0.3546825170        0.5825049387
  H        -3.8827056160        0.5112128919       -1.2763364789
 Cl        -6.0996430579        0.9976622119       -0.1945975709
 Cl        -1.6298679340        0.9433569510       -0.4054450957
       6
 i =      28, E =      -24.8044960884
  C        -3.7271300180        0.9690177022       -0.3062871629
  H        -3.8138348712        2.0440212342       -0.2118467615
  H        -3.7968880497        0.3546405435        0.5826148732
  H        -3.8826689918        0.5113742995       -1.2760059372
 Cl        -6.0997187330        0.9976635248       -0.1945935697
 Cl        -1.6299333260        0.9433639684       -0.4054334839
       6
 i =      29, E =      -24.8045319841
  C        -3.7263362649        0.9683535549       -0.3072233211
  H        -3.8139144602        2.0444067484       -0.2117673526
  H        -3.7969491734        0.3545882058        0.5827867413
  H        -3.8826319912        0.5116861725       -1.2753663556
 Cl        -6.1000888783        0.9976679163       -0.1945771240
 Cl        -1.6302531476        0.9433786738       -0.4054046336
       6
 i =      30, E =      -24.8045469283
  C        -3.7259711408        0.9689233979       -0.3064291765
  H        -3.8139093024        2.0440054999       -0.2118372258
  H        -3.7969607865        0.3546793491        0.5825789971
  H        -3.8827281346        0.5114358795       -1.2758768590
 Cl        -6.1002291654        0.9976681176       -0.1945730387
 Cl        -1.6303753689        0.9433690274       -0.4054147434
       6
 i =      31, E =      -24.8045846035
  C        -3.7251385207        0.9684819897       -0.3071256012
  H        -3.8139815895        2.0442431139       -0.2117816147
  H        -3.7970230039        0.3546400493        0.5827048362
  H        -3.8827158280        0.5116641201       -1.2754037011
 Cl        -6.1006109735        0.9976722047       -0.1945564335
 Cl        -1.6307039424        0.9433797932       -0.4053895339
       6
 i =      32, E =      -24.8045980087
  C        -3.7248129433        0.9688721005       -0.3065351264
  H        -3.8139820757        2.0439610045       -0.2118322370
  H        -3.7970337347        0.3547180789        0.5825379340
  H        -3.8827905120        0.5114840036       -1.2757739959
 Cl        -6.1007394177        0.9976726757       -0.1945522764
 Cl        -1.6308151669        0.9433734076       -0.4053963469
       6
 i =      33, E =      -24.8046157919
  C        -3.7244093643        0.9688768141       -0.3065414129
  H        -3.8140071893        2.0439314411       -0.2118335845
  H        -3.7970594893        0.3547335412        0.5825168593
  H        -3.8828151546        0.5114913788       -1.2757571882
 Cl        -6.1009154975        0.9976740768       -0.1945453992
 Cl        -1.6309671431        0.9433740188       -0.4053913236
       6
 i =      34, E =      -24.8046342360
  C        -3.7240087016        0.9686978972       -0.3068308344
  H        -3.8140401466        2.0440231595       -0.2118110687
  H        -3.7970885721        0.3547188029        0.5825667429
  H        -3.8828130384        0.5115865777       -1.2755596361
 Cl        -6.1010991498        0.9976760159       -0.1945375006
 Cl        -1.6311242226        0.9433788173       -0.4053797526
       6
 i =      35, E =      -24.8046677998
  C        -3.7232239868        0.9689888931       -0.3063966759
  H        -3.8140727754        2.0437742585       -0.2118502519
  H        -3.7971293825        0.3548013183        0.5824101480
  H        -3.8829016746        0.5114623671       -1.2758138647
 Cl        -6.1014345193        0.9976785451       -0.1945246375
 Cl        -1.6314114824        0.9433758883       -0.4053767679
       6
 i =      36, E =      -24.8046737520
  C        -3.7231082411        0.9688482583       -0.3066212122
  H        -3.8140869678        2.0438604321       -0.2118321246
  H        -3.7971402889        0.3547809723        0.5824607082
  H        -3.8828879978        0.5115333816       -1.2756667963
 Cl        -6.1014908971        0.9976792707       -0.1945219677
 Cl        -1.6314594273        0.9433789554       -0.4053706574
       6
 i =      37, E =      -24.8047378561
  C        -3.7216981740        0.9682491201       -0.3075987515
  H        -3.8142030582        2.0441630621       -0.2117571088
  H        -3.7972434885        0.3547325069        0.5826258347
  H        -3.8828842234        0.5118557170       -1.2749969150
 Cl        -6.1021358985        0.9976859596       -0.1944941132
 Cl        -1.6320089672        0.9433949046       -0.4053309966
       6
 i =      38, E =      -24.8047477654
  C        -3.7214683504        0.9687585380       -0.3068061539
  H        -3.8141906842        2.0438067560       -0.2118237439
  H        -3.7972440134        0.3548312348        0.5824104958
  H        -3.8829730673        0.5116129563       -1.2754974917
 Cl        -6.1022180044        0.9976859779       -0.1944918392
 Cl        -1.6320796899        0.9433858073       -0.4053433177
       6
 i =      39, E =      -24.8048143261
  C        -3.7200091092        0.9686788137       -0.3069827203
  H        -3.8142838154        2.0437545008       -0.2118151010
  H        -3.7973373802        0.3548766039        0.5823667887
  H        -3.8830453570        0.5116876286       -1.2753375774
 Cl        -6.1028682376        0.9976919709       -0.1944646372
 Cl        -1.6326299095        0.9433917525       -0.4053188033
       6
 i =      40, E =      -24.8048215309
  C        -3.7198456057        0.9687429858       -0.3068761470
  H        -3.8142902872        2.0437001128       -0.2118251045
  H        -3.7973453794        0.3548963179        0.5823284101
  H        -3.8830655479        0.5116582741       -1.2753988732
 Cl        -6.1029386576        0.9976925188       -0.1944618499
 Cl        -1.6326883312        0.9433910609       -0.4053184860
       6
 i =      41, E =      -24.8048261239
  C        -3.7197453647        0.9687388036       -0.3068856594
  H        -3.8142966411        2.0436960513       -0.2118251652
  H        -3.7973517596        0.3548991681        0.5823249618
  H        -3.8830709391        0.5116628693       -1.2753893402
 Cl        -6.1029834413        0.9976929217       -0.1944599976
 Cl        -1.6327256631        0.9433914563       -0.4053168499
       6
 i =      42, E =      -24.8048282355
  C        -3.7196994851        0.9687355556       -0.3068923866
  H        -3.8142995543        2.0436950197       -0.2118249558
  H        -3.7973546612        0.3549002529        0.5823239798
  H        -3.8830731218        0.5116656568       -1.2753835130
 Cl        -6.1030040844        0.9976931123       -0.1944591389
 Cl        -1.6327429022        0.9433916731       -0.4053160360
