       6
 i =       0, E =      -24.8049744026
  C        -3.6097471701        0.9672990935       -0.3121223961
  H        -3.7657198686        2.0038184037       -0.2174647840
  H        -3.7495844342        0.3767583433        0.5476306586
  H        -3.8318648934        0.5276731140       -1.2423553754
 Cl        -6.1956827996        0.9988970368       -0.1899039090
 Cl        -1.5301085853        0.9422615813       -0.4099538457
       6
 i =       1, E =      -24.8091110374
  C        -3.5901875331        0.9670997514       -0.3132571142
  H        -3.7834818868        2.0448045860       -0.2132011342
  H        -3.7666574461        0.3535632497        0.5821359621
  H        -3.8522363907        0.5105806450       -1.2782884285
 Cl        -6.1807081594        0.9987085947       -0.1906242604
 Cl        -1.5805971755        0.9428483369       -0.4075776930
       6
 i =       2, E =      -24.8110224866
  C        -3.5891594379        0.9670624223       -0.3126927293
  H        -3.7925838875        2.0244508744       -0.2145474908
  H        -3.7759773649        0.3655604092        0.5654201398
  H        -3.8601217407        0.5193465975       -1.2595435369
 Cl        -6.1734211572        0.9986129323       -0.1909816732
 Cl        -1.6359250916        0.9434967549       -0.4050085328
       6
 i =       3, E =      -24.8117732072
  C        -3.5773233634        0.9670619710       -0.3145829039
  H        -3.8068122187        2.0352827597       -0.2129201455
  H        -3.7901332907        0.3592430673        0.5754923182
  H        -3.8748792168        0.5152526208       -1.2678779738
 Cl        -6.1745528385        0.9986226341       -0.1909452354
 Cl        -1.6499960969        0.9436535732       -0.4043258708
       6
 i =       4, E =      -24.8121963595
  C        -3.5760180072        0.9667361576       -0.3118648226
  H        -3.8104811871        2.0252442472       -0.2137342568
  H        -3.7936759867        0.3658895552        0.5660401554
  H        -3.8782546208        0.5190986238       -1.2598024583
 Cl        -6.1783642224        0.9986638349       -0.1907596064
 Cl        -1.6627259915        0.9438099272       -0.4038206337
       6
 i =       5, E =      -24.8123793040
  C        -3.5718296020        0.9670821994       -0.3150537194
  H        -3.8137272526        2.0282031441       -0.2131919276
  H        -3.7971912919        0.3633332480        0.5700659071
  H        -3.8813079871        0.5184354197       -1.2609691131
 Cl        -6.1796477246        0.9986798850       -0.1907214829
 Cl        -1.6649022208        0.9438230573       -0.4036426552
       6
 i =       6, E =      -24.8125282462
  C        -3.5695827045        0.9667065934       -0.3130081839
  H        -3.8155794906        2.0270889479       -0.2132965681
  H        -3.7988099894        0.3647154239        0.5681108996
  H        -3.8833517732        0.5185839587       -1.2607423094
 Cl        -6.1817760764        0.9987018677       -0.1906143984
 Cl        -1.6679997077        0.9438672972       -0.4035617457
       6
 i =       7, E =      -24.8126201568
  C        -3.5679492141        0.9667585379       -0.3134453064
  H        -3.8167521627        2.0267595032       -0.2132492456
  H        -3.8000278816        0.3648051766        0.5680776424
  H        -3.8844614944        0.5188012245       -1.2602305993
 Cl        -6.1831653272        0.9987178823       -0.1905551015
 Cl        -1.6696525138        0.9438836824       -0.4034781224
       6
 i =       8, E =      -24.8126573152
  C        -3.5673419948        0.9668178213       -0.3138474733
  H        -3.8171183176        2.0265236939       -0.2132328161
  H        -3.8004412377        0.3648232974        0.5680936924
  H        -3.8847675555        0.5189689189       -1.2598426700
 Cl        -6.1838598751        0.9987261634       -0.1905264554
 Cl        -1.6701882176        0.9438876635       -0.4034444079
       6
 i =       9, E =      -24.8130340867
  C        -3.5603817945        0.9670175657       -0.3159752646
  H        -3.8210861302        2.0241849385       -0.2131439543
  H        -3.8046432576        0.3656711564        0.5672363089
  H        -3.8883603786        0.5203470503       -1.2567176582
 Cl        -6.1916732094        0.9988166389       -0.1901894944
 Cl        -1.6757839405        0.9439399205       -0.4031509470
       6
 i =      10, E =      -24.8130849445
  C        -3.5593550511        0.9667360431       -0.3142915603
  H        -3.8213496869        2.0240266582       -0.2132252109
  H        -3.8046977839        0.3663272284        0.5662347533
  H        -3.8888377401        0.5201246568       -1.2572872282
 Cl        -6.1930051520        0.9988300429       -0.1901183532
 Cl        -1.6757853595        0.9439465417       -0.4032014210
       6
 i =      11, E =      -24.8132443722
  C        -3.5560716511        0.9668334268       -0.3152948408
  H        -3.8219798883        2.0229785703       -0.2132381937
  H        -3.8054480292        0.3666655963        0.5658381840
  H        -3.8892910426        0.5207302218       -1.2559380107
 Cl        -6.1975044630        0.9988819367       -0.1899217775
 Cl        -1.6761300917        0.9439442347       -0.4031742524
       6
 i =      12, E =      -24.8132872712
  C        -3.5550254100        0.9666852298       -0.3145506446
  H        -3.8220679240        2.0228164444       -0.2132833045
  H        -3.8054426226        0.3670247466        0.5652959002
  H        -3.8894694147        0.5206711239       -1.2561099482
 Cl        -6.1986056622        0.9988935912       -0.1898675229
 Cl        -1.6763209549        0.9439492437       -0.4031894621
       6
 i =      13, E =      -24.8133932633
  C        -3.5524271644        0.9668283721       -0.3151998235
  H        -3.8222486784        2.0221597931       -0.2133002934
  H        -3.8057028696        0.3671845009        0.5651034941
  H        -3.8895605355        0.5210090307       -1.2553470379
 Cl        -6.2014402677        0.9989262652       -0.1897433755
 Cl        -1.6766525907        0.9439462938       -0.4031660483
       6
 i =      14, E =      -24.8134119775
  C        -3.5519549294        0.9666952180       -0.3149742612
  H        -3.8222838592        2.0221014983       -0.2133149456
  H        -3.8056975367        0.3673497759        0.5648633495
  H        -3.8896064116        0.5210284577       -1.2553289890
 Cl        -6.2019458841        0.9989313966       -0.1897189043
 Cl        -1.6766645869        0.9439494368       -0.4031736209
       6
 i =      15, E =      -24.8135092815
  C        -3.5494407999        0.9665805503       -0.3146096406
  H        -3.8224069388        2.0214744994       -0.2133811884
  H        -3.8057767793        0.3678747603        0.5641019376
  H        -3.8897546019        0.5212216827       -1.2549455612
 Cl        -6.2046766124        0.9989620291       -0.1895919378
 Cl        -1.6767144880        0.9439500442       -0.4031918738
       6
 i =      16, E =      -24.8135457746
  C        -3.5485065755        0.9667280153       -0.3151418962
  H        -3.8224222217        2.0211673440       -0.2133815964
  H        -3.8058621258        0.3678468961        0.5641618781
  H        -3.8897032455        0.5214038050       -1.2545204684
 Cl        -6.2057358986        0.9989746909       -0.1895465556
 Cl        -1.6767007576        0.9439448406       -0.4031820493
       6
 i =      17, E =      -24.8136154171
  C        -3.5466249679        0.9663728941       -0.3148277158
  H        -3.8224960006        2.0208868683       -0.2134192274
  H        -3.8058498877        0.3682946689        0.5635244025
  H        -3.8897558473        0.5215662768       -1.2542255734
 Cl        -6.2078231858        0.9989966542       -0.1894486199
 Cl        -1.6766597107        0.9439517459       -0.4032008027
       6
 i =      18, E =      -24.8136484576
  C        -3.5457447987        0.9667958281       -0.3152067480
  H        -3.8224575620        2.0204154460       -0.2134420495
  H        -3.8059228764        0.3682381834        0.5635990946
  H        -3.8897256713        0.5216717271       -1.2539428983
 Cl        -6.2088380428        0.9990104621       -0.1894044504
 Cl        -1.6766234212        0.9439387578       -0.4031956369
       6
 i =      19, E =      -24.8137255930
  C        -3.5436027495        0.9666891059       -0.3153239453
  H        -3.8225007160        2.0199287774       -0.2134775518
  H        -3.8059598212        0.3685620515        0.5631464554
  H        -3.8897182689        0.5219182893       -1.2534257351
 Cl        -6.2112588096        0.9990374195       -0.1892938841
 Cl        -1.6765550283        0.9439383309       -0.4032046762
       6
 i =      20, E =      -24.8137991149
  C        -3.5415286433        0.9662148060       -0.3151094912
  H        -3.8225297020        2.0196376063       -0.2135140964
  H        -3.8058853930        0.3690611590        0.5624435604
  H        -3.8896828302        0.5221526019       -1.2529872607
 Cl        -6.2137340258        0.9990630396       -0.1891785548
 Cl        -1.6763783239        0.9439465721       -0.4032267238
       6
 i =      21, E =      -24.8138118413
  C        -3.5411738661        0.9664673937       -0.3152400729
  H        -3.8224938241        2.0193982251       -0.2135292281
  H        -3.8059102669        0.3690245434        0.5624866873
  H        -3.8896701335        0.5221776658       -1.2529034725
 Cl        -6.2141641179        0.9990693830       -0.1891597106
 Cl        -1.6763452875        0.9439388081       -0.4032258931
       6
 i =      22, E =      -24.8138823790
  C        -3.5391249360        0.9668354211       -0.3156711446
  H        -3.8224140864        2.0186569446       -0.2135757688
  H        -3.8059422648        0.3691469900        0.5623058585
  H        -3.8895747413        0.5224144161       -1.2523472474
 Cl        -6.2166546964        0.9990998237       -0.1890482191
 Cl        -1.6761505777        0.9439237331       -0.4032302714
       6
 i =      23, E =      -24.8139041548
  C        -3.5384863668        0.9663883943       -0.3154443505
  H        -3.8224482122        2.0187434886       -0.2135796224
  H        -3.8058709771        0.3694097326        0.5619418740
  H        -3.8895592747        0.5224953090       -1.2522308980
 Cl        -6.2174422291        0.9991062487       -0.1890105123
 Cl        -1.6760786264        0.9439344628       -0.4032421335
       6
 i =      24, E =      -24.8139600151
  C        -3.5368085831        0.9668784964       -0.3155406909
  H        -3.8223352956        2.0179987841       -0.2136427713
  H        -3.8058677786        0.3695401629        0.5617241196
  H        -3.8895137820        0.5226112929       -1.2519340192
 Cl        -6.2195389374        0.9991330605       -0.1889151768
 Cl        -1.6758815681        0.9439165993       -0.4032542613
       6
 i =      25, E =      -24.8139798785
  C        -3.5362227789        0.9663470893       -0.3156132607
  H        -3.8223814251        2.0181620929       -0.2136260546
  H        -3.8058158816        0.3697369259        0.5614758792
  H        -3.8894425070        0.5227643173       -1.2516598492
 Cl        -6.2202966121        0.9991385359       -0.1888807789
 Cl        -1.6758039518        0.9439296520       -0.4032579238
       6
 i =      26, E =      -24.8140122306
  C        -3.5352286755        0.9663561038       -0.3156196541
  H        -3.8223447413        2.0178881067       -0.2136514513
  H        -3.8057842662        0.3698914737        0.5612501184
  H        -3.8894010510        0.5228636187       -1.2514494574
 Cl        -6.2215578198        0.9991529863       -0.1888230802
 Cl        -1.6756773514        0.9439267118       -0.4032670128
       6
 i =      27, E =      -24.8140659240
  C        -3.5335479421        0.9668736142       -0.3156289255
  H        -3.8222044563        2.0171190060       -0.2137220997
  H        -3.8057533484        0.3700397375        0.5609990428
  H        -3.8893497547        0.5229585226       -1.2511994868
 Cl        -6.2237494697        0.9991810804       -0.1887232056
 Cl        -1.6754287704        0.9439075429       -0.4032839834
       6
 i =      28, E =      -24.8140743339
  C        -3.5332995508        0.9665933884       -0.3157028837
  H        -3.8222283384        2.0172219458       -0.2137101518
  H        -3.8057275777        0.3701252269        0.5608961816
  H        -3.8893048527        0.5230412822       -1.2510487935
 Cl        -6.2240904304        0.9991832545       -0.1887080663
 Cl        -1.6753878755        0.9439144673       -0.4032847141
       6
 i =      29, E =      -24.8141145117
  C        -3.5320331336        0.9661179503       -0.3158013024
  H        -3.8222228747        2.0171641080       -0.2137135402
  H        -3.8056376779        0.3704130664        0.5605111217
  H        -3.8891828222        0.5232611642       -1.2506270955
 Cl        -6.2258074212        0.9991998709       -0.1886304154
 Cl        -1.6751787883        0.9439237093       -0.4032960595
       6
 i =      30, E =      -24.8141292079
  C        -3.5315601282        0.9665530320       -0.3157379958
  H        -3.8221386072        2.0167710354       -0.2137522072
  H        -3.8056378348        0.3704052969        0.5604901633
  H        -3.8891924808        0.5232306381       -1.2506525030
 Cl        -6.2264417889        0.9992097274       -0.1886013112
 Cl        -1.6750993340        0.9439102332       -0.4033030857
       6
 i =      31, E =      -24.8141686044
  C        -3.5302869270        0.9661112849       -0.3159932048
  H        -3.8221270150        2.0167024287       -0.2137492847
  H        -3.8055582040        0.3706457725        0.5601784137
  H        -3.8890385685        0.5234798879       -1.2501574032
 Cl        -6.2281954227        0.9992269075       -0.1885232162
 Cl        -1.6748837297        0.9439139301       -0.4033113153
       6
 i =      32, E =      -24.8141815901
  C        -3.5298576789        0.9665239876       -0.3157942747
  H        -3.8220419057        2.0163258308       -0.2137928178
  H        -3.8055418916        0.3706726729        0.5601022659
  H        -3.8890682238        0.5234200556       -1.2502536446
 Cl        -6.2287839803        0.9992361358       -0.1884953239
 Cl        -1.6748016160        0.9439015973       -0.4033219593
       6
 i =      33, E =      -24.8141991498
  C        -3.5292796333        0.9665147197       -0.3158352186
  H        -3.8220065627        2.0161739299       -0.2138058072
  H        -3.8055093220        0.3707581325        0.5599792432
  H        -3.8890198146        0.5234895503       -1.2501064040
 Cl        -6.2295936708        0.9992452507       -0.1884588400
 Cl        -1.6746940791        0.9438987952       -0.4033283605
       6
 i =      34, E =      -24.8142167963
  C        -3.5287086697        0.9663116585       -0.3159763114
  H        -3.8219914158        2.0161405084       -0.2138038126
  H        -3.8054675187        0.3708624275        0.5598466987
  H        -3.8889378532        0.5236091808       -1.2498681621
 Cl        -6.2304309244        0.9992534493       -0.1884217178
 Cl        -1.6745734843        0.9439032392       -0.4033317618
       6
 i =      35, E =      -24.8142480705
  C        -3.5276458544        0.9666629677       -0.3157836817
  H        -3.8218618057        2.0156279283       -0.2138610639
  H        -3.8053970745        0.3710029473        0.5596077588
  H        -3.8889081847        0.5236228936       -1.2498155709
 Cl        -6.2319511968        0.9992728066       -0.1883516113
 Cl        -1.6743572096        0.9438910648       -0.4033503574
       6
 i =      36, E =      -24.8142533392
  C        -3.5274820114        0.9664843330       -0.3159167737
  H        -3.8218731530        2.0156946229       -0.2138495599
  H        -3.8053839520        0.3710365833        0.5595763642
  H        -3.8888596625        0.5236950756       -1.2496745658
 Cl        -6.2322031052        0.9992745295       -0.1883410066
 Cl        -1.6743210716        0.9438954846       -0.4033489077
       6
 i =      37, E =      -24.8143094010
  C        -3.5255611216        0.9657626066       -0.3164591593
  H        -3.8218136826        2.0156148302       -0.2138377986
  H        -3.8052297480        0.3713755508        0.5591503310
  H        -3.8885518940        0.5241157245       -1.2488336226
 Cl        -6.2350810621        0.9993024401       -0.1882138867
 Cl        -1.6739038136        0.9439097082       -0.4033594468
       6
 i =      38, E =      -24.8143169690
  C        -3.5252996162        0.9663891236       -0.3160378672
  H        -3.8217043468        2.0151515405       -0.2138991361
  H        -3.8052134133        0.3713810786        0.5590803571
  H        -3.8886422123        0.5239573067       -1.2491271774
 Cl        -6.2354301548        0.9993103323       -0.1881954328
 Cl        -1.6738530976        0.9438914980       -0.4033742551
       6
 i =      39, E =      -24.8143677440
  C        -3.5235284697        0.9661734413       -0.3164296512
  H        -3.8215675037        2.0147992428       -0.2139191871
  H        -3.8050703725        0.3716208679        0.5587570950
  H        -3.8883795862        0.5242578346       -1.2484983129
 Cl        -6.2381883533        0.9993399439       -0.1880729790
 Cl        -1.6734207694        0.9438897032       -0.4033899002
       6
 i =      40, E =      -24.8143732939
  C        -3.5233235070        0.9663840644       -0.3161094379
  H        -3.8215135195        2.0146035296       -0.2139520482
  H        -3.8050310385        0.3716879314        0.5586293439
  H        -3.8884240832        0.5241776700       -1.2486619404
 Cl        -6.2384946477        0.9993446881       -0.1880570812
 Cl        -1.6733692525        0.9438831627       -0.4034017246
       6
 i =      41, E =      -24.8143766027
  C        -3.5232075669        0.9663696258       -0.3161306653
  H        -3.8215027638        2.0145823923       -0.2139536228
  H        -3.8050194381        0.3717036789        0.5586073969
  H        -3.8884052891        0.5241961176       -1.2486234542
 Cl        -6.2386824782        0.9993466759       -0.1880487392
 Cl        -1.6733391081        0.9438825633       -0.4034037757
       6
 i =      42, E =      -24.8143781001
  C        -3.5231558762        0.9663596481       -0.3161468745
  H        -3.8214980877        2.0145748379       -0.2139537641
  H        -3.8050143402        0.3717101137        0.5585992234
  H        -3.8883955241        0.5242062969       -1.2486022596
 Cl        -6.2387681726        0.9993475634       -0.1880449727
 Cl        -1.6733249137        0.9438825973       -0.4034042001
