       6
 i =      42, E =      -24.8150044769
  C        -4.2545207482        0.9752646370       -0.2817246820
  H        -3.8925419176        2.0054205027       -0.2114491561
  H        -3.8761428664        0.3784350565        0.5536283234
  H        -3.9592029161        0.5293104044       -1.2363953535
 Cl        -6.0810390590        0.9974698328       -0.1953263112
 Cl        -1.4154932103        0.9408504672       -0.4153405103
       6
 i =      42, E =      -24.8150044228
  C        -4.1872725833        0.9744104278       -0.2848691763
  H        -3.8250201329        2.0045236152       -0.2146671072
  H        -3.8086926021        0.3775339916        0.5504181939
  H        -3.8913387680        0.5285652053       -1.2392949193
 Cl        -6.0135402550        0.9966241829       -0.1986558393
 Cl        -1.3488323873        0.9399945242       -0.4186088850
       6
 i =      42, E =      -24.8130933668
  C        -4.0887168583        0.9732132512       -0.2895019130
  H        -3.7940181533        2.0234027534       -0.2144732828
  H        -3.7773936641        0.3661361866        0.5648472010
  H        -3.8615208441        0.5199785581       -1.2581645907
 Cl        -5.9749128317        0.9961307955       -0.2005016027
 Cl        -1.4536122321        0.9412197353       -0.4137578258
       6
 i =      42, E =      -24.8062890898
  C        -3.9597578323        0.9716467295       -0.2955775864
  H        -3.7994949998        2.0413247450       -0.2127083356
  H        -3.7825836277        0.3559738717        0.5798226785
  H        -3.8681332653        0.5124247822       -1.2740890454
 Cl        -6.0066059710        0.9965219256       -0.1990102641
 Cl        -1.5335981131        0.9421892163       -0.4099894976
       6
 i =      42, E =      -24.8022356344
  C        -3.8250291253        0.9700100592       -0.3019320964
  H        -3.8077006317        2.0468522146       -0.2118643428
  H        -3.7907046446        0.3529657219        0.5846792402
  H        -3.8766830719        0.5102089773       -1.2786188195
 Cl        -6.0590060272        0.9971581490       -0.1965353345
 Cl        -1.5910503084        0.9428861483       -0.4072806974
       6
 i =      42, E =      -24.8048282355
  C        -3.7196994851        0.9687355556       -0.3068923866
  H        -3.8142995543        2.0436950197       -0.2118249558
  H        -3.7973546612        0.3549002529        0.5823239798
  H        -3.8830731218        0.5116656568       -1.2753835130
 Cl        -6.1030040844        0.9976931123       -0.1944591389
 Cl        -1.6327429022        0.9433916731       -0.4053160360
       6
 i =      42, E =      -24.8105055618
  C        -3.6145512837        0.9673974078       -0.3119369180
  H        -3.8203688999        2.0336515615       -0.2123885647
  H        -3.8035815179        0.3607829536        0.5742603485
  H        -3.8884709987        0.5161001083       -1.2658394022
 Cl        -6.1555829705        0.9983324339       -0.1919778143
 Cl        -1.6676181379        0.9438168053       -0.4036696998
       6
 i =      42, E =      -24.8143781001
  C        -3.5231558762        0.9663596481       -0.3161468745
  H        -3.8214980877        2.0145748379       -0.2139537641
  H        -3.8050143402        0.3717101137        0.5585992234
  H        -3.8883955241        0.5242062969       -1.2486022596
 Cl        -6.2387681726        0.9993475634       -0.1880449727
 Cl        -1.6733249137        0.9438825973       -0.4034042001
       6
 i =      42, E =      -24.8150033189
  C        -3.4479681903        0.9654016498       -0.3197415730
  H        -3.7773985028        2.0037386375       -0.2169417421
  H        -3.7610991413        0.3770264882        0.5480143268
  H        -3.8435388345        0.5280295379       -1.2414034715
 Cl        -6.2928419429        1.0000329143       -0.1854373387
 Cl        -1.6220566092        0.9432628509       -0.4057258074
       6
 i =      42, E =      -24.8150044803
  C        -3.3948226440        0.9646439123       -0.3222549675
  H        -3.7234458523        2.0032843708       -0.2194699933
  H        -3.7073982902        0.3761994389        0.5456314370
  H        -3.7894188858        0.5271273505       -1.2443420494
 Cl        -6.2338973797        0.9993727714       -0.1880964416
 Cl        -1.5683137103        0.9427319526       -0.4081582908
