 DBCSR| CPU Multiplication driver                                           XSMM
 DBCSR| Multrec recursion limit                                              512
 DBCSR| Multiplication stack size                                           1000
 DBCSR| Maximum elements for images                                    UNLIMITED
 DBCSR| Multiplicative factor virtual images                                   1
 DBCSR| Use multiplication densification                                       T
 DBCSR| Multiplication size stacks                                             3
 DBCSR| Use memory pool for CPU allocation                                     F
 DBCSR| Number of 3D layers                                               SINGLE
 DBCSR| Use MPI memory allocation                                              F
 DBCSR| Use RMA algorithm                                                      F
 DBCSR| Use Communication thread                                               T
 DBCSR| Communication thread load                                             87
 DBCSR| MPI: My node id                                                        0
 DBCSR| MPI: Number of nodes                                                 256
 DBCSR| OMP: Current number of threads                                         1
 DBCSR| OMP: Max number of threads                                             1
 DBCSR| Split modifier for TAS multiplication algorithm                  1.0E+00


  **** **** ******  **  PROGRAM STARTED AT               2023-04-19 15:43:28.097
 ***** ** ***  *** **   PROGRAM STARTED ON                             nid001121
 **    ****   ******    PROGRAM STARTED BY                              dpassero
 ***** **    ** ** **   PROGRAM PROCESS ID                                 67313
  **** **  *******  **  PROGRAM STARTED IN /scratch/e1000/dpassero/MMM_2023/jbac
                                           hmann/grimme_d3/benzene/mol

 CP2K| version string:                 CP2K version 2022.1 (Development Version)
 CP2K| source code revision number:                                  git:4ddb46c
 CP2K| cp2kflags: omp libint fftw3 libxc elpa parallel mpi3 scalapack xsmm max_c
 CP2K|            ontr=4 plumed2 spglib
 CP2K| is freely available from                            https://www.cp2k.org/
 CP2K| Program compiled at                      Wed 14 Sep 2022 12:18:41 PM CEST
 CP2K| Program compiled on                                             nid001080
 CP2K| Program compiled for                                 Eiger-gfortran_May22
 CP2K| Data directory path         /users/mmi/DEV/CP2K/trunk_new/eiger/cp2k/data
 CP2K| Input file name        /scratch/e1000/dpassero/MMM_2023/jbachmann/grimme_

 GLOBAL| Force Environment number                                              1
 GLOBAL| Basis set file name                                        BASIS_MOLOPT
 GLOBAL| Potential file name                                           POTENTIAL
 GLOBAL| MM Potential file name                                     MM_POTENTIAL
 GLOBAL| Coordinate file name                                    benzene_mol.xyz
 GLOBAL| Method name                                                        CP2K
 GLOBAL| Project name                                                benzene_mol
 GLOBAL| Run type                                                        GEO_OPT
 GLOBAL| FFT library                                                       FFTW3
 GLOBAL| Diagonalization library                                            ELPA
 GLOBAL| DGEMM library                                                      BLAS
 GLOBAL| Minimum number of eigenvectors for ELPA usage                        16
 GLOBAL| Orthonormality check for eigenvectors                          DISABLED
 GLOBAL| Matrix multiplication library                                 ScaLAPACK
 GLOBAL| All-to-all communication in single precision                          F
 GLOBAL| FFTs using library dependent lengths                                  T
 GLOBAL| Grid backend                                                       AUTO
 GLOBAL| Global print level                                                  LOW
 GLOBAL| MPI I/O enabled                                                       T
 GLOBAL| Total number of message passing processes                           256
 GLOBAL| Number of threads for this process                                    1
 GLOBAL| This output is from process                                           0
 GLOBAL| Stack size for threads created by OpenMP (OMP_STACKSIZE)           100M
 GLOBAL| CPU model name                          AMD EPYC 7742 64-Core Processor
 GLOBAL| CPUID                                                              1002

 MEMORY| system memory details [Kb]
 MEMORY|                        rank 0           min           max       average
 MEMORY| MemTotal            263506204     263506204     263506204     263506204
 MEMORY| MemFree             226900064     226829064     226900064     226864564
 MEMORY| Buffers                476960        448580        476960        462770
 MEMORY| Cached                7655980       7655980       7985576       7820778
 MEMORY| Slab                  7992136       7832432       7992136       7912284
 MEMORY| SReclaimable           690944        616628        690944        653786
 MEMORY| MemLikelyFree       235723948     235723948     235879848     235801898


 GENERATE|  Preliminary Number of Bonds generated:                             0
 GENERATE|  Achieved consistency in connectivity generation.

 *******************************************************************************
 *******************************************************************************
 **                                                                           **
 **     #####                         ##              ##                      **
 **    ##   ##            ##          ##              ##                      **
 **   ##     ##                       ##            ######                    **
 **   ##     ##  ##   ##  ##   #####  ##  ##   ####   ##    #####    #####    **
 **   ##     ##  ##   ##  ##  ##      ## ##   ##      ##   ##   ##  ##   ##   **
 **   ##  ## ##  ##   ##  ##  ##      ####     ###    ##   ######   ######    **
 **    ##  ###   ##   ##  ##  ##      ## ##      ##   ##   ##       ##        **
 **     #######   #####   ##   #####  ##  ##  ####    ##    #####   ##        **
 **           ##                                                    ##        **
 **                                                                           **
 **                                                ... make the atoms dance   **
 **                                                                           **
 **            Copyright (C) by CP2K developers group (2000-2022)             **
 **                      J. Chem. Phys. 152, 194103 (2020)                    **
 **                                                                           **
 *******************************************************************************


 TOTAL NUMBERS AND MAXIMUM NUMBERS

  Total number of            - Atomic kinds:                                   2
                             - Atoms:                                         12
                             - Shell sets:                                    12
                             - Shells:                                        48
                             - Primitive Cartesian functions:                 84
                             - Cartesian basis functions:                    114
                             - Spherical basis functions:                    108

  Maximum angular momentum of- Orbital basis functions:                        2
                             - Local part of the GTH pseudopotential:          2
                             - Non-local part of the GTH pseudopotential:      0


 SCF PARAMETERS         Density guess:                                   RESTART
                        --------------------------------------------------------
                        max_scf:                                              30
                        max_scf_history:                                       0
                        max_diis:                                              4
                        --------------------------------------------------------
                        eps_scf:                                        1.00E-06
                        eps_scf_history:                                0.00E+00
                        eps_diis:                                       1.00E-01
                        eps_eigval:                                     1.00E-05
                        --------------------------------------------------------
                        level_shift [a.u.]:                             0.000000
                        --------------------------------------------------------
                        Outer loop SCF in use 
                        No variables optimised in outer loop
                        eps_scf                                         1.00E-06
                        max_scf                                               20
                        No outer loop optimization
                        step_size                                       5.00E-01

 BFGS| Use rational function optimization for step estimation:                NO
 BFGS| Use model Hessian for initial guess:                                  YES
 BFGS| Restart Hessian:                                                       NO
 BFGS| Trust radius:                                                       0.100

 *******************************************************************************
 ***                     STARTING GEOMETRY OPTIMIZATION                      ***
 ***                                   BFGS                                  ***
 *******************************************************************************

 Number of electrons:                                                         30
 Number of occupied orbitals:                                                 15
 Number of molecular orbitals:                                                15

 Number of orbital functions:                                                108
 Number of independent orbital functions:                                    108

 Extrapolation method: initial_guess


 SCF WAVEFUNCTION OPTIMIZATION

  ----------------------------------- OT ---------------------------------------
  Minimizer      : DIIS                : direct inversion
                                         in the iterative subspace
                                         using   7 DIIS vectors
                                         safer DIIS on
  Preconditioner : FULL_KINETIC        : inversion of T + eS
  Precond_solver : DEFAULT
  stepsize       :    0.15000000                  energy_gap     :    0.20000000
  eps_taylor     :   0.10000E-15                  max_taylor     :             4
  ----------------------------------- OT ---------------------------------------

  Step     Update method      Time    Convergence         Total energy    Change
  ------------------------------------------------------------------------------
     1 OT DIIS     0.15E+00    0.3     0.00313926       -37.6899216767 -3.77E+01
     2 OT DIIS     0.15E+00    0.4     0.00153371       -37.6916419917 -1.72E-03
     3 OT DIIS     0.15E+00    0.4     0.00061429       -37.6922418424 -6.00E-04
     4 OT DIIS     0.15E+00    0.4     0.00019773       -37.6923637137 -1.22E-04
     5 OT DIIS     0.15E+00    0.4     0.00008097       -37.6923781998 -1.45E-05
     6 OT DIIS     0.15E+00    0.4     0.00003779       -37.6923810253 -2.83E-06
     7 OT DIIS     0.15E+00    0.4     0.00001633       -37.6923817595 -7.34E-07
     8 OT DIIS     0.15E+00    0.4     0.00000713       -37.6923819023 -1.43E-07
     9 OT DIIS     0.15E+00    0.4     0.00000406       -37.6923819240 -2.17E-08
    10 OT DIIS     0.15E+00    0.4     0.00000200       -37.6923819320 -8.05E-09
    11 OT DIIS     0.15E+00    0.4     0.00000097       -37.6923819341 -2.05E-09

  *** SCF run converged in    11 steps ***


  Electronic density on regular grids:        -30.0000000058       -0.0000000058
  Core density on regular grids:               30.0000000003        0.0000000003
  Total charge density on r-space grids:       -0.0000000055
  Total charge density g-space grids:          -0.0000000055

  Overlap energy of the core charge distribution:               0.00000334960219
  Self energy of the core charge distribution:                -88.47289131380762
  Core Hamiltonian energy:                                     28.00045558680492
  Hartree energy:                                              35.35653418255333
  Exchange-correlation energy:                                -12.57343257753600
  Dispersion energy:                                           -0.00305116169433

  Total energy:                                               -37.69238193407752

  outer SCF iter =    1 RMS gradient =   0.97E-06 energy =        -37.6923819341
  outer SCF loop converged in   1 iterations or   11 steps


 ENERGY| Total FORCE_EVAL ( QS ) energy [a.u.]:              -37.692381934582961

 --------  Informations at step =     0 ------------
  Optimization Method        =                 BFGS
  Total Energy               =       -37.6923819346
  Used time                  =                5.339
 ---------------------------------------------------

 --------------------------
 OPTIMIZATION STEP:      1
 --------------------------

 Number of electrons:                                                         30
 Number of occupied orbitals:                                                 15
 Number of molecular orbitals:                                                15

 Number of orbital functions:                                                108
 Number of independent orbital functions:                                    108

 Extrapolation method: ASPC


 SCF WAVEFUNCTION OPTIMIZATION

  ----------------------------------- OT ---------------------------------------
  Minimizer      : DIIS                : direct inversion
                                         in the iterative subspace
                                         using   7 DIIS vectors
                                         safer DIIS on
  Preconditioner : FULL_KINETIC        : inversion of T + eS
  Precond_solver : DEFAULT
  stepsize       :    0.15000000                  energy_gap     :    0.20000000
  eps_taylor     :   0.10000E-15                  max_taylor     :             4
  ----------------------------------- OT ---------------------------------------

  Step     Update method      Time    Convergence         Total energy    Change
  ------------------------------------------------------------------------------
     1 OT DIIS     0.15E+00    0.2     0.00019340       -37.6924626980 -3.77E+01
     2 OT DIIS     0.15E+00    0.4     0.00010853       -37.6924696938 -7.00E-06
     3 OT DIIS     0.15E+00    0.4     0.00003988       -37.6924731941 -3.50E-06
     4 OT DIIS     0.15E+00    0.4     0.00002057       -37.6924737887 -5.95E-07
     5 OT DIIS     0.15E+00    0.4     0.00000712       -37.6924739940 -2.05E-07
     6 OT DIIS     0.15E+00    0.4     0.00000270       -37.6924740165 -2.25E-08
     7 OT DIIS     0.15E+00    0.4     0.00000122       -37.6924740197 -3.18E-09
     8 OT DIIS     0.15E+00    0.4     0.00000050       -37.6924740204 -7.37E-10

  *** SCF run converged in     8 steps ***


  Electronic density on regular grids:        -30.0000000058       -0.0000000058
  Core density on regular grids:               30.0000000003        0.0000000003
  Total charge density on r-space grids:       -0.0000000055
  Total charge density g-space grids:          -0.0000000055

  Overlap energy of the core charge distribution:               0.00000314235543
  Self energy of the core charge distribution:                -88.47289131380762
  Core Hamiltonian energy:                                     27.95957599850618
  Hartree energy:                                              35.38523516994467
  Exchange-correlation energy:                                -12.56134365089503
  Dispersion energy:                                           -0.00305336653445

  Total energy:                                               -37.69247402043082

  outer SCF iter =    1 RMS gradient =   0.50E-06 energy =        -37.6924740204
  outer SCF loop converged in   1 iterations or    8 steps


 ENERGY| Total FORCE_EVAL ( QS ) energy [a.u.]:              -37.692474020530490

 --------  Informations at step =     1 ------------
  Optimization Method        =                 BFGS
  Total Energy               =       -37.6924740205
  Real energy change         =        -0.0000920859
  Predicted change in energy =        -0.0000719639
  Scaling factor             =         0.0000000000
  Step size                  =         0.0090609411
  Trust radius               =         0.1000000000
  Decrease in energy         =                  YES
  Used time                  =                3.769

  Convergence check :
  Max. step size             =         0.0090609411
  Conv. limit for step size  =         0.0200000000
  Convergence in step size   =                  YES
  RMS step size              =         0.0040016680
  Conv. limit for RMS step   =         0.0200000000
  Convergence in RMS step    =                  YES
  Max. gradient              =         0.0007316330
  Conv. limit for gradients  =         0.0030000000
  Conv. in gradients         =                  YES
  RMS gradient               =         0.0002988561
  Conv. limit for RMS grad.  =         0.0010000000
  Conv. in RMS gradients     =                  YES
 ---------------------------------------------------
 Estimated peak process memory after this step [MiB]                         272

 *******************************************************************************
 ***                    GEOMETRY OPTIMIZATION COMPLETED                      ***
 *******************************************************************************

                    Reevaluating energy at the minimum

 Number of electrons:                                                         30
 Number of occupied orbitals:                                                 15
 Number of molecular orbitals:                                                15

 Number of orbital functions:                                                108
 Number of independent orbital functions:                                    108

 Extrapolation method: ASPC


 SCF WAVEFUNCTION OPTIMIZATION

  ----------------------------------- OT ---------------------------------------
  Minimizer      : DIIS                : direct inversion
                                         in the iterative subspace
                                         using   7 DIIS vectors
                                         safer DIIS on
  Preconditioner : FULL_KINETIC        : inversion of T + eS
  Precond_solver : DEFAULT
  stepsize       :    0.15000000                  energy_gap     :    0.20000000
  eps_taylor     :   0.10000E-15                  max_taylor     :             4
  ----------------------------------- OT ---------------------------------------

  Step     Update method      Time    Convergence         Total energy    Change
  ------------------------------------------------------------------------------
     1 OT DIIS     0.15E+00    0.2     0.00019337       -37.6924626982 -3.77E+01
     2 OT DIIS     0.15E+00    0.4     0.00010854       -37.6924696919 -6.99E-06
     3 OT DIIS     0.15E+00    0.4     0.00003990       -37.6924731938 -3.50E-06
     4 OT DIIS     0.15E+00    0.4     0.00002059       -37.6924737887 -5.95E-07
     5 OT DIIS     0.15E+00    0.4     0.00000710       -37.6924739943 -2.06E-07
     6 OT DIIS     0.15E+00    0.4     0.00000268       -37.6924740166 -2.23E-08
     7 OT DIIS     0.15E+00    0.4     0.00000121       -37.6924740197 -3.13E-09
     8 OT DIIS     0.15E+00    0.4     0.00000050       -37.6924740204 -7.23E-10

  *** SCF run converged in     8 steps ***


  Electronic density on regular grids:        -30.0000000058       -0.0000000058
  Core density on regular grids:               30.0000000003        0.0000000003
  Total charge density on r-space grids:       -0.0000000055
  Total charge density g-space grids:          -0.0000000055

  Overlap energy of the core charge distribution:               0.00000314235543
  Self energy of the core charge distribution:                -88.47289131380762
  Core Hamiltonian energy:                                     27.95958738085853
  Hartree energy:                                              35.38522585006316
  Exchange-correlation energy:                                -12.56134571336938
  Dispersion energy:                                           -0.00305336653445

  Total energy:                                               -37.69247402043432

  outer SCF iter =    1 RMS gradient =   0.50E-06 energy =        -37.6924740204
  outer SCF loop converged in   1 iterations or    8 steps


 ENERGY| Total FORCE_EVAL ( QS ) energy [a.u.]:              -37.692474020434318

 -------------------------------------------------------------------------------
 -                                                                             -
 -                                DBCSR STATISTICS                             -
 -                                                                             -
 -------------------------------------------------------------------------------
 COUNTER                                    TOTAL       BLAS       SMM       ACC
 flops     5 x     5 x    15               504000       0.0%    100.0%      0.0%
 flops    13 x     5 x    15              1123200       0.0%    100.0%      0.0%
 flops     5 x    13 x    15              1123200       0.0%    100.0%      0.0%
 flops    15 x    15 x    15              1255500       0.0%    100.0%      0.0%
 flops    15 x    15 x     5              1417500       0.0%    100.0%      0.0%
 flops     5 x    15 x    15              1782000       0.0%    100.0%      0.0%
 flops     5 x    15 x     5              2511000       0.0%    100.0%      0.0%
 flops    13 x    13 x    15              3407040       0.0%    100.0%      0.0%
 flops    15 x    15 x    13              3685500       0.0%    100.0%      0.0%
 flops    13 x    15 x    15              4633200       0.0%    100.0%      0.0%
 flops    13 x    15 x     5              6528600       0.0%    100.0%      0.0%
 flops     5 x    15 x    13              6528600       0.0%    100.0%      0.0%
 flops    13 x    15 x    13             16974360       0.0%    100.0%      0.0%
 flops inhomo. stacks                           0       0.0%      0.0%      0.0%
 flops total                        51.473700E+06       0.0%    100.0%      0.0%
 flops max/rank                     11.210100E+06       0.0%    100.0%      0.0%
 matmuls inhomo. stacks                         0       0.0%      0.0%      0.0%
 matmuls total                              18918       0.0%    100.0%      0.0%
 number of processed stacks                 18918       0.0%    100.0%      0.0%
 average stack size                                     0.0       1.0       0.0
 marketing flops                    56.659596E+06
 -------------------------------------------------------------------------------
 # multiplications                            551
 max memory usage/rank             288.755712E+06
 # max total images/rank                        1
 # max 3D layers                                1
 # MPI messages exchanged                 4231680
 MPI messages size (bytes):
  total size                       240.783840E+06
  min size                           0.000000E+00
  max size                           1.800000E+03
  average size                      56.900295E+00
 MPI breakdown and total messages size (bytes):
             size <=      128             3933420                        0
       128 < size <=     8192              298260                240783840
      8192 < size <=    32768                   0                        0
     32768 < size <=   131072                   0                        0
    131072 < size <=  4194304                   0                        0
   4194304 < size <= 16777216                   0                        0
  16777216 < size                               0                        0
 -------------------------------------------------------------------------------
 -                                                                             -
 -                      DBCSR MESSAGE PASSING PERFORMANCE                      -
 -                                                                             -
 -------------------------------------------------------------------------------
 ROUTINE             CALLS      AVE VOLUME [Bytes]
 MP_Bcast               14                     12.
 MP_Allreduce         2963                      8.
 MP_Alltoall          1915                  70076.
 MP_ISend            35252                    220.
 MP_IRecv            35252                    185.
 -------------------------------------------------------------------------------

 -------------------------------------------------------------------------------
 -                                                                             -
 -                                DBM STATISTICS                               -
 -                                                                             -
 -------------------------------------------------------------------------------
    M  x    N  x    K                                          COUNT     PERCENT
 -------------------------------------------------------------------------------

 -------------------------------------------------------------------------------
 -                                                                             -
 -                                GRID STATISTICS                              -
 -                                                                             -
 -------------------------------------------------------------------------------
 LP    KERNEL             BACKEND                              COUNT     PERCENT
 3     collocate general  REF                                  82260      22.73%
 3     integrate general  REF                                  77280      21.36%
 2     collocate general  REF                                  48654      13.45%
 4     integrate general  REF                                  46227      12.77%
 4     collocate general  REF                                  45270      12.51%
 2     integrate general  REF                                  43791      12.10%
 0     collocate general  REF                                   9216       2.55%
 1     integrate general  REF                                   6144       1.70%
 5     integrate general  REF                                   3018       0.83%
 -------------------------------------------------------------------------------

 MEMORY| Estimated peak process memory [MiB]                                 276

 -------------------------------------------------------------------------------
 -                                                                             -
 -                         MESSAGE PASSING PERFORMANCE                         -
 -                                                                             -
 -------------------------------------------------------------------------------

 ROUTINE             CALLS      AVE VOLUME [Bytes]
 MP_Group                5
 MP_Bcast              221                1673189.
 MP_Allreduce          854                   3242.
 MP_Sync               481
 MP_Alltoall           997              201200301.
 MP_SendRecv          2040                    120.
 MP_ISendRecv        45135                   6632.
 MP_Wait             48721
 MP_comm_split           2
 MP_ISend            11562                  91543.
 MP_IRecv            11844                  89423.
 MP_Recv                53                    864.
 -------------------------------------------------------------------------------


 -------------------------------------------------------------------------------
 -                                                                             -
 -                           R E F E R E N C E S                               -
 -                                                                             -
 -------------------------------------------------------------------------------
 
 CP2K version 2022.1 (Development Version), the CP2K developers group (2022).
 CP2K is freely available from https://www.cp2k.org/ .

 Kuehne,Thomas D.; Iannuzzi,Marcella; Del Ben,Mauro;
 Rybkin,Vladimir V.; Seewald,Patrick; Stein,Frederick; Laino,Teodoro;
 Khaliullin,Rustam Z.; Schuett,Ole; Schiffmann,Florian; Golze,Dorothea;
 Wilhelm,Jan; Chulkov,Sergey; Bani-Hashemian,Mohammad Hossein;
 Weber,Valery; Borstnik,Urban; Taillefumier,Mathieu;
 Jakobovits,Alice Shoshana; Lazzaro,Alfio; Pabst,Hans; Mueller,Tiziano;
 Schade,Robert; Guidon,Manuel; Andermatt,Samuel; Holmberg,Nico;
 Schenter,Gregory K.; Hehn,Anna; Bussy,Augustin; Belleflamme,Fabian;
 Tabacchi,Gloria; Gloess,Andreas; Lass,Michael; Bethune,Iain;
 Mundy,Christopher J.; Plessl,Christian; Watkins,Matt;
 VandeVondele,Joost; Krack,Matthias; Hutter,Juerg. 
 The Journal of Chemical Physics, 152 (19), (2020). 
 CP2K: An electronic structure and molecular dynamics software package -
 Quickstep: Efficient and accurate electronic structure calculations.
 https://doi.org/10.1063/5.0007045

 Goerigk, Lars; Hansen, Andreas; Bauer, Christoph; Ehrlich, Stephan;
 Najibi, Asim; Grimme, Stefan. , 19 (48), (2017). 
 A look at the density functional theory zoo with the advanced GMTKN55 database
 for general main group thermochemistry, kinetics and noncovalent interactions.
 https://doi.org/10.1039/C7CP04913G

 Schuett, Ole; Messmer, Peter; Hutter, Juerg; VandeVondele, Joost. 
 Electronic Structure Calculations on Graphics Processing Units, John
 Wiley & Sons, Ltd, 173-190 (2016). 
 GPU-Accelerated Sparse Matrix-Matrix Multiplication for
 Linear Scaling Density Functional Theory.
 https://doi.org/10.1002/9781118670712.ch8

 Heinecke, A; Henry, G; Hutchinson, M; Pabst, H. 
 Proceedings of Intl. Supercomputing Conference, 981-991 (2016). 
 LIBXSMM: Accelerating Small Matrix Multiplications
 by Runtime Code Generation.
 https://doi.org/10.1109/SC.2016.83

 Borstnik, U; VandeVondele, J; Weber, V; Hutter, J. 
 PARALLEL COMPUTING, 40 (5-6), 47-58 (2014). 
 Sparse matrix multiplication: The distributed block-compressed sparse
 row library.
 https://doi.org/10.1016/j.parco.2014.03.012

 Hutter, J; Iannuzzi, M; Schiffmann, F; VandeVondele, J. 
 WIREs Comput Mol Sci., 4 (1), 15-25 (2014). 
 CP2K: atomistic simulations of condensed matter systems.
 https://doi.org/10.1002/wcms.1159

 Marek, A; Blum, V; Johanni, R; Havu, V; Lang, B; Auckenthaler, T;
 Heinecke, A; Bungartz, H; Lederer, H. 
 Journal of Physics: Condensed Matter, 26 (21), (2014). 
 The ELPA library: scalable parallel eigenvalue solutions for
 electronic structure
 theory and computational science.
 https://doi.org/10.1088/0953-8984/26/21/213201

 Grimme, S; Ehrlich, S; Goerigk, L. 
 JOURNAL OF COMPUTATIONAL CHEMISTRY, 32, 1456 (2011). 
 Effect of the damping function in dispersion corrected density functional theory.
 https://doi.org/10.1002/jcc.21759

 Grimme, S; Antony, J; Ehrlich, S; Krieg, H. 
 JOURNAL OF CHEMICAL PHYSICS, 132 (15), 154104 (2010). 
 A consistent and accurate ab initio parametrization of density
 functional dispersion correction (DFT-D) for the 94 elements H-Pu.
 https://doi.org/10.1063/1.3382344

 VandeVondele, J; Hutter, J. 
 JOURNAL OF CHEMICAL PHYSICS, 127 (11), 114105 (2007). 
 Gaussian basis sets for accurate calculations on molecular systems in
 gas and condensed phases.
 https://doi.org/10.1063/1.2770708

 Kuhne, TD; Krack, M; Mohamed, FR; Parrinello, M. 
 PHYSICAL REVIEW LETTERS, 98 (6), 066401 (2007). 
 Efficient and accurate Car-Parrinello-like approach to
 Born-Oppenheimer molecular dynamics.
 https://doi.org/10.1103/PhysRevLett.98.066401

 Krack, M. 
 THEORETICAL CHEMISTRY ACCOUNTS, 114 (1-3), 145-152 (2005). 
 Pseudopotentials for H to Kr optimized for gradient-corrected
 exchange-correlation functionals.
 https://doi.org/10.1007/s00214-005-0655-y

 VandeVondele, J; Krack, M; Mohamed, F; Parrinello, M; Chassaing, T;
 Hutter, J. COMPUTER PHYSICS COMMUNICATIONS, 167 (2), 103-128 (2005). 
 QUICKSTEP: Fast and accurate density functional calculations using a
 mixed Gaussian and plane waves approach.
 https://doi.org/10.1016/j.cpc.2004.12.014

 Frigo, M; Johnson, SG. 
 PROCEEDINGS OF THE IEEE, 93 (2), 216-231 (2005). 
 The design and implementation of FFTW3.
 https://doi.org/10.1109/JPROC.2004.840301

 Kolafa, J. 
 JOURNAL OF COMPUTATIONAL CHEMISTRY, 25 (3), 335-342 (2004). 
 Time-reversible always stable predictor-corrector method for
 molecular dynamics of polarizable molecules.
 https://doi.org/10.1002/jcc.10385

 VandeVondele, J; Hutter, J. 
 JOURNAL OF CHEMICAL PHYSICS, 118 (10), 4365-4369 (2003). 
 An efficient orbital transformation method for electronic structure
 calculations.
 https://doi.org/10.1063/1.1543154

 Hartwigsen, C; Goedecker, S; Hutter, J. 
 PHYSICAL REVIEW B, 58 (7), 3641-3662 (1998). 
 Relativistic separable dual-space Gaussian pseudopotentials from H to Rn.
 https://doi.org/10.1103/PhysRevB.58.3641

 Lippert, G; Hutter, J; Parrinello, M. 
 MOLECULAR PHYSICS, 92 (3), 477-487 (1997). 
 A hybrid Gaussian and plane wave density functional scheme.
 https://doi.org/10.1080/002689797170220

 Perdew, JP; Burke, K; Ernzerhof, M. 
 PHYSICAL REVIEW LETTERS, 77 (18), 3865-3868 (1996). 
 Generalized gradient approximation made simple.
 https://doi.org/10.1103/PhysRevLett.77.3865

 Goedecker, S; Teter, M; Hutter, J. 
 PHYSICAL REVIEW B, 54 (3), 1703-1710 (1996). 
 Separable dual-space Gaussian pseudopotentials.
 https://doi.org/10.1103/PhysRevB.54.1703


 -------------------------------------------------------------------------------
 -                                                                             -
 -                                T I M I N G                                  -
 -                                                                             -
 -------------------------------------------------------------------------------
 SUBROUTINE                       CALLS  ASD         SELF TIME        TOTAL TIME
                                MAXIMUM       AVERAGE  MAXIMUM  AVERAGE  MAXIMUM
 CP2K                                 1  1.0    0.011    0.029   13.053   13.055
 cp_geo_opt                           1  2.0    0.000    0.001   12.665   12.666
 geoopt_bfgs                          1  3.0    0.002    0.003   12.665   12.666
 cp_eval_at                           3  4.0    0.001    0.001   12.563   12.564
 qs_energies                          3  5.7    0.012    0.013   11.947   11.948
 scf_env_do_scf                       3  6.7    0.000    0.000   11.082   11.083
 scf_env_do_scf_inner_loop           27  7.7    0.002    0.003   10.342   10.345
 qs_forces                            2  5.0    0.003    0.004    9.094    9.095
 rebuild_ks_matrix                   29  9.5    0.000    0.001    6.795    6.797
 qs_ks_build_kohn_sham_matrix        29 10.5    0.006    0.007    6.794    6.797
 rs_pw_transfer                     300 13.1    0.005    0.006    6.241    6.648
 qs_ks_update_qs_env                 30  8.7    0.000    0.000    6.193    6.196
 qs_rho_update_rho_low               30  8.8    0.001    0.001    4.769    4.771
 calculate_rho_elec                  30  9.8    0.005    0.006    4.769    4.771
 sum_up_and_integrate                29 11.5    0.008    0.009    3.771    4.269
 integrate_v_rspace                  29 12.5    0.001    0.001    3.763    4.261
 density_rs2pw                       30 10.8    0.001    0.002    3.467    3.867
 potential_pw2rs                     29 13.5    0.001    0.002    3.515    3.531
 pw_transfer                        618 13.6    0.045    0.062    2.848    2.957
 fft_wrap_pw1pw2                    560 14.8    0.005    0.007    2.782    2.885
 fft_wrap_pw1pw2_150                324 16.2    0.152    0.165    2.428    2.540
 rs_pw_transfer_RS2PW_150            33 12.6    1.288    1.384    1.840    2.240
 fft3d_pb                           324 17.2    0.555    0.664    2.078    2.180
 mp_waitany                        2322 15.0    1.621    2.108    1.621    2.108
 qs_vxc_create                       29 11.5    0.001    0.001    2.029    2.046
 xc_vxc_pw_create                    29 12.5    0.011    0.015    2.028    2.045
 rs_pw_transfer_PW2RS_150            31 15.2    1.201    1.271    1.933    1.993
 grid_collocate_task_list            30 10.8    1.283    1.707    1.283    1.707
 xc_pw_derive                       174 14.5    0.001    0.001    1.558    1.667
 mp_alltoall_z22v                   884 18.9    1.319    1.540    1.319    1.540
 dbcsr_multiply_generic             551 13.7    0.013    0.014    1.048    1.303
 rs_pw_transfer_PW2RS_50             29 15.5    0.527    0.571    1.034    1.126
 xc_rho_set_and_dset_create          29 13.5    0.024    0.029    0.992    1.074
 xc_pw_divergence                    29 13.5    0.001    0.001    1.003    1.074
 rs_pw_transfer_RS2PW_50             30 12.8    0.575    0.630    0.917    0.929
 mp_sum_l                          2977 13.3    0.564    0.829    0.564    0.829
 init_scf_loop                        3  7.7    0.000    0.001    0.734    0.735
 mp_alltoall_d11v                   430 14.6    0.196    0.690    0.196    0.690
 rs_gather_matrices                  29 13.5    0.000    0.000    0.186    0.682
 cube_transpose_4                   149 18.4    0.081    0.096    0.523    0.640
 cube_transpose_3                   175 18.0    0.056    0.072    0.506    0.637
 grid_integrate_task_list            29 13.5    0.060    0.626    0.060    0.626
 qs_ks_update_qs_env_forces           2  6.0    0.000    0.000    0.604    0.604
 init_scf_run                         3  6.7    0.000    0.000    0.568    0.569
 scf_env_initial_rho_setup            3  7.7    0.000    0.000    0.568    0.569
 qs_scf_new_mos                      27  8.7    0.000    0.000    0.561    0.563
 qs_scf_loop_do_ot                   27  9.7    0.000    0.000    0.561    0.563
 mp_waitall_1                    125743 16.8    0.419    0.552    0.419    0.552
 ot_scf_mini                         27 10.7    0.000    0.000    0.530    0.532
 cube_transpose_1                   291 18.2    0.066    0.072    0.282    0.443
 cube_transpose_2                   269 17.3    0.045    0.053    0.256    0.422
 rs_grid_zero                        63 16.0    0.380    0.406    0.380    0.406
 fft3d_ps                           236 16.1    0.023    0.042    0.332    0.398
 ot_mini                             27 11.7    0.001    0.001    0.383    0.384
 qs_ot_get_derivative                27 12.7    0.000    0.001    0.338    0.340
 wfi_extrapolate                      3  8.7    0.001    0.001    0.334    0.334
 rs_pw_transfer_PW2RS_20             29 15.5    0.068    0.080    0.179    0.282
 multiply_cannon                    551 14.7    0.054    0.068    0.256    0.277
 qs_energies_init_hamiltonians        3  6.7    0.000    0.001    0.275    0.275
 fft_wrap_pw1pw2_50                  59 15.1    0.007    0.017    0.211    0.270
 qs_env_update_s_mstruct              3  7.7    0.000    0.000    0.265    0.267
 -------------------------------------------------------------------------------

 The number of warnings for this run is : 0
 
 -------------------------------------------------------------------------------
  **** **** ******  **  PROGRAM ENDED AT                 2023-04-19 15:43:43.402
 ***** ** ***  *** **   PROGRAM RAN ON                                 nid001121
 **    ****   ******    PROGRAM RAN BY                                  dpassero
 ***** **    ** ** **   PROGRAM PROCESS ID                                 67313
  **** **  *******  **  PROGRAM STOPPED IN /scratch/e1000/dpassero/MMM_2023/jbac
                                           hmann/grimme_d3/benzene/mol
