       5
 i =        1, E =        -8.2183157602
  C        -0.0000765066        0.0000413546        0.0002014554
  H         0.6279234725        0.6279876526        0.6278738715
  H        -0.6279460754       -0.6280052665        0.6278932319
  H         0.6277898247       -0.6278542597       -0.6277311323
  H        -0.6278579850        0.6279209376       -0.6277960530
       5
 i =        2, E =        -8.2183157602
  C        -0.0000765066        0.0000413546        0.0002014554
  H         0.6279234725        0.6279876526        0.6278738715
  H        -0.6279460754       -0.6280052665        0.6278932319
  H         0.6277898247       -0.6278542597       -0.6277311323
  H        -0.6278579850        0.6279209376       -0.6277960530
