 DBCSR| CPU Multiplication driver                                           BLAS (U)
 DBCSR| Multrec recursion limit                                              512 (U)
 DBCSR| Multiplication stack size                                           1000 (D)
 DBCSR| Maximum elements for images                                    UNLIMITED (U)
 DBCSR| Multiplicative factor virtual images                                   1 (U)
 DBCSR| Use multiplication densification                                       T (D)
 DBCSR| Multiplication size stacks                                             3 (U)
 DBCSR| Use memory pool for CPU allocation                                     F (U)
 DBCSR| OMP: Current number of threads                                         1
 DBCSR| OMP: Max number of threads                                             1
 DBCSR| Split modifier for TAS multiplication algorithm                  1.0E+00 (U)


  **** **** ******  **  PROGRAM STARTED AT               2023-03-29 08:50:32.815
 ***** ** ***  *** **   PROGRAM STARTED ON                            eu-a2p-494
 **    ****   ******    PROGRAM STARTED BY                             jbachmann
 ***** **    ** ** **   PROGRAM PROCESS ID                                 25466
  **** **  *******  **  PROGRAM STARTED IN /cluster/home/jbachmann/Molecular-and
                                           -Materials-Modelling-FS2023/exercise6
                                           /triplet_atom

 CP2K| version string:                 CP2K version 2023.1 (Development Version)
 CP2K| source code revision number:                                  git:dc34ec9
 CP2K| cp2kflags: omp libint fftw3 libxc max_contr=4 spglib libvori libbqb      
 CP2K| is freely available from                            https://www.cp2k.org/
 CP2K| Program compiled at                         Mon Mar 27 23:22:21 CEST 2023
 CP2K| Program compiled on                                           eu-g5-025-4
 CP2K| Program compiled for                              Linux-gnu-x86_64-static
 CP2K| Data directory path                   /cluster/scratch/danielep/cp2k/data
 CP2K| Input file name                                               triplet.inp

 GLOBAL| Force Environment number                                              1
 GLOBAL| Basis set file name            /cluster/apps/nss/gcc-6.3.0/cp2k/8.2/x86
 GLOBAL| Potential file name            /cluster/apps/nss/gcc-6.3.0/cp2k/8.2/x86
 GLOBAL| MM Potential file name                                     MM_POTENTIAL
 GLOBAL| Coordinate file name                                      __STD_INPUT__
 GLOBAL| Method name                                                        CP2K
 GLOBAL| Project name                                                          o
 GLOBAL| Run type                                                         ENERGY
 GLOBAL| FFT library                                                       FFTW3
 GLOBAL| Diagonalization library                                       ScaLAPACK
 GLOBAL| DGEMM library                                                      BLAS
 GLOBAL| Orthonormality check for eigenvectors                          DISABLED
 GLOBAL| Matrix multiplication library                                 ScaLAPACK
 GLOBAL| All-to-all communication in single precision                          F
 GLOBAL| FFTs using library dependent lengths                                  F
 GLOBAL| Grid backend                                                       AUTO
 GLOBAL| Global print level                                                  LOW
 GLOBAL| MPI I/O enabled                                                       T
 GLOBAL| Total number of message passing processes                             1
 GLOBAL| Number of threads for this process                                    1
 GLOBAL| This output is from process                                           0
 GLOBAL| Stack size for threads created by OpenMP (OMP_STACKSIZE)        default
 GLOBAL| CPU model name                          AMD EPYC 7763 64-Core Processor

 MEMORY| system memory details [Kb]
 MEMORY|                        rank 0           min           max       average
 MEMORY| MemTotal            261505604     261505604     261505604     261505604
 MEMORY| MemFree             223256076     223256076     223256076     223256076
 MEMORY| Buffers                   100           100           100           100
 MEMORY| Cached                8431816       8431816       8431816       8431816
 MEMORY| Slab                  1467368       1467368       1467368       1467368
 MEMORY| SReclaimable           461200        461200        461200        461200
 MEMORY| MemLikelyFree       232149192     232149192     232149192     232149192


 GENERATE|  Preliminary Number of Bonds generated:                             0
 GENERATE|  Achieved consistency in connectivity generation.

 *******************************************************************************
 *******************************************************************************
 **                                                                           **
 **     #####                         ##              ##                      **
 **    ##   ##            ##          ##              ##                      **
 **   ##     ##                       ##            ######                    **
 **   ##     ##  ##   ##  ##   #####  ##  ##   ####   ##    #####    #####    **
 **   ##     ##  ##   ##  ##  ##      ## ##   ##      ##   ##   ##  ##   ##   **
 **   ##  ## ##  ##   ##  ##  ##      ####     ###    ##   ######   ######    **
 **    ##  ###   ##   ##  ##  ##      ## ##      ##   ##   ##       ##        **
 **     #######   #####   ##   #####  ##  ##  ####    ##    #####   ##        **
 **           ##                                                    ##        **
 **                                                                           **
 **                                                ... make the atoms dance   **
 **                                                                           **
 **            Copyright (C) by CP2K developers group (2000-2023)             **
 **                      J. Chem. Phys. 152, 194103 (2020)                    **
 **                                                                           **
 *******************************************************************************


 TOTAL NUMBERS AND MAXIMUM NUMBERS

  Total number of            - Atomic kinds:                                   1
                             - Atoms:                                          1
                             - Shell sets:                                    13
                             - Shells:                                        14
                             - Primitive Cartesian functions:                 22
                             - Cartesian basis functions:                     55
                             - Spherical basis functions:                     46

  Maximum angular momentum of the orbital basis functions:                     3


 SCF PARAMETERS         Density guess:                                   RESTART
                        --------------------------------------------------------
                        max_scf:                                            2000
                        max_scf_history:                                       0
                        max_diis:                                              4
                        --------------------------------------------------------
                        eps_scf:                                        1.00E-06
                        eps_scf_history:                                0.00E+00
                        eps_diis:                                       1.00E-01
                        eps_eigval:                                     1.00E-05
                        --------------------------------------------------------
                        level_shift [a.u.]:                             0.000000
                        --------------------------------------------------------
                        Mixing method:                           DIRECT_P_MIXING
                        --------------------------------------------------------
                        No outer SCF

 Spin 1

 Number of electrons:                                                          5
 Number of occupied orbitals:                                                  5
 Number of molecular orbitals:                                                 5

 Spin 2

 Number of electrons:                                                          3
 Number of occupied orbitals:                                                  3
 Number of molecular orbitals:                                                 3

 Number of orbital functions:                                                 46
 Number of independent orbital functions:                                     46

 Extrapolation method: initial_guess

 *** WARNING in qs_initial_guess.F:305 :: User requested to restart the   ***
 *** wavefunction from the file named: o-RESTART.wfn. This file does not  ***
 *** exist. Please check the existence of the file or change properly the ***
 *** value of the keyword WFN_RESTART_FILE_NAME. Calculation continues    ***
 *** using ATOMIC GUESS.                                                  ***



 SCF WAVEFUNCTION OPTIMIZATION

  Step     Update method      Time    Convergence         Total energy    Change
  ------------------------------------------------------------------------------

 MO| ALPHA EIGENVALUES, OCCUPATION NUMBERS, AND SPHERICAL EIGENVECTORS AFTER SCF STEP 0
 MO|
 MO|                             1            2            3            4
 MO|                        -21.382814    -1.501450    -0.656118    -0.656118
 MO|
 MO|                          1.000000     1.000000     1.000000     1.000000
 MO|
 MO|    1     1  O  1s       -0.984549    -0.001673     0.000000     0.000000
 MO|    2     1  O  2s       -0.008214    -0.603990     0.000000     0.000000
 MO|    3     1  O  1s       -0.033209    -0.182441     0.000000     0.000000
 MO|    4     1  O  1s        0.001510    -0.339332     0.000000     0.000000
 MO|    5     1  O  1py      -0.000000    -0.000000    -0.281573    -0.278987
 MO|    6     1  O  1pz       0.000000     0.000003     0.000000     0.000000
 MO|    7     1  O  1px      -0.000000    -0.000000     0.278987    -0.281573
 MO|    8     1  O  1py       0.000000    -0.000000    -0.351159    -0.347934
 MO|    9     1  O  1pz      -0.000000    -0.000005     0.000000     0.000000
 MO|   10     1  O  1px       0.000000    -0.000000     0.347934    -0.351159
 MO|   11     1  O  1py      -0.000000    -0.000000    -0.222606    -0.220562
 MO|   12     1  O  1pz       0.000000     0.000017     0.000000     0.000000
 MO|   13     1  O  1px      -0.000000    -0.000000     0.220562    -0.222606
 MO|   14     1  O  1d-2      0.000000    -0.000000    -0.000000    -0.000000
 MO|   15     1  O  1d-1      0.000000    -0.000000     0.000000     0.000000
 MO|   16     1  O  1d0       0.000000     0.000005     0.000000     0.000000
 MO|   17     1  O  1d+1      0.000000    -0.000000    -0.000000     0.000000
 MO|   18     1  O  1d+2     -0.000000    -0.000000     0.000000    -0.000000
 MO|   19     1  O  1d-2     -0.000000    -0.000000    -0.000000    -0.000000
 MO|   20     1  O  1d-1     -0.000000    -0.000000    -0.000000    -0.000000
 MO|   21     1  O  1d0       0.000000    -0.000023     0.000000     0.000000
 MO|   22     1  O  1d+1     -0.000000    -0.000000     0.000000    -0.000000
 MO|   23     1  O  1d+2      0.000000     0.000000     0.000000    -0.000000
 MO|   24     1  O  1f-3     -0.000000    -0.000000    -0.000000    -0.000000
 MO|   25     1  O  1f-2      0.000000    -0.000000    -0.000000     0.000000
 MO|   26     1  O  1f-1     -0.000000    -0.000000     0.000000     0.000000
 MO|   27     1  O  1f0      -0.000000    -0.000000     0.000000    -0.000000
 MO|   28     1  O  1f+1     -0.000000    -0.000000    -0.000000     0.000000
 MO|   29     1  O  1f+2      0.000000    -0.000000     0.000000    -0.000000
 MO|   30     1  O  1f+3     -0.000000     0.000000    -0.000000     0.000000
 MO|   31     1  O  1s       -0.000770    -0.001430    -0.000000    -0.000000
 MO|   32     1  O  1py       0.000000    -0.000000    -0.014019    -0.013890
 MO|   33     1  O  1pz       0.000000    -0.000009     0.000000     0.000000
 MO|   34     1  O  1px       0.000000    -0.000000     0.013890    -0.014019
 MO|   35     1  O  1d-2      0.000000     0.000000    -0.000000    -0.000000
 MO|   36     1  O  1d-1      0.000000    -0.000000     0.000001     0.000001
 MO|   37     1  O  1d0      -0.000000     0.000046     0.000000     0.000000
 MO|   38     1  O  1d+1      0.000000     0.000000    -0.000001     0.000001
 MO|   39     1  O  1d+2      0.000000    -0.000000     0.000000    -0.000000
 MO|   40     1  O  1f-3      0.000000     0.000000     0.000000     0.000000
 MO|   41     1  O  1f-2     -0.000000    -0.000000    -0.000000    -0.000000
 MO|   42     1  O  1f-1      0.000000     0.000000     0.000000     0.000000
 MO|   43     1  O  1f0       0.000000    -0.000000     0.000000    -0.000000
 MO|   44     1  O  1f+1      0.000000     0.000000    -0.000000     0.000000
 MO|   45     1  O  1f+2     -0.000000    -0.000000    -0.000000    -0.000000
 MO|   46     1  O  1f+3      0.000000    -0.000000     0.000000    -0.000000
 MO|
 MO|                             5
 MO|                         -0.656096
 MO|
 MO|                          1.000000
 MO|
 MO|    1     1  O  1s        0.000016
 MO|    2     1  O  2s        0.000035
 MO|    3     1  O  1s       -0.000000
 MO|    4     1  O  1s       -0.000054
 MO|    5     1  O  1py       0.000000
 MO|    6     1  O  1pz       0.396379
 MO|    7     1  O  1px       0.000000
 MO|    8     1  O  1py       0.000000
 MO|    9     1  O  1pz       0.494415
 MO|   10     1  O  1px       0.000000
 MO|   11     1  O  1py       0.000000
 MO|   12     1  O  1pz       0.313233
 MO|   13     1  O  1px       0.000000
 MO|   14     1  O  1d-2      0.000000
 MO|   15     1  O  1d-1      0.000000
 MO|   16     1  O  1d0       0.000004
 MO|   17     1  O  1d+1      0.000000
 MO|   18     1  O  1d+2      0.000000
 MO|   19     1  O  1d-2     -0.000000
 MO|   20     1  O  1d-1      0.000000
 MO|   21     1  O  1d0      -0.000023
 MO|   22     1  O  1d+1      0.000000
 MO|   23     1  O  1d+2      0.000000
 MO|   24     1  O  1f-3     -0.000000
 MO|   25     1  O  1f-2     -0.000000
 MO|   26     1  O  1f-1      0.000000
 MO|   27     1  O  1f0      -0.000000
 MO|   28     1  O  1f+1      0.000000
 MO|   29     1  O  1f+2      0.000000
 MO|   30     1  O  1f+3      0.000000
 MO|   31     1  O  1s        0.000038
 MO|   32     1  O  1py       0.000000
 MO|   33     1  O  1pz       0.019822
 MO|   34     1  O  1px       0.000000
 MO|   35     1  O  1d-2     -0.000000
 MO|   36     1  O  1d-1      0.000000
 MO|   37     1  O  1d0       0.000066
 MO|   38     1  O  1d+1      0.000000
 MO|   39     1  O  1d+2      0.000000
 MO|   40     1  O  1f-3      0.000000
 MO|   41     1  O  1f-2      0.000000
 MO|   42     1  O  1f-1     -0.000000
 MO|   43     1  O  1f0      -0.000001
 MO|   44     1  O  1f+1     -0.000000
 MO|   45     1  O  1f+2      0.000000
 MO|   46     1  O  1f+3     -0.000000
 MO|
 MO| E(Fermi):           -0.656096 a.u.        -17.853286 eV


 MO| BETA EIGENVALUES, OCCUPATION NUMBERS, AND SPHERICAL EIGENVECTORS AFTER SCF STEP 0
 MO|
 MO|                             1            2            3
 MO|                        -20.105420    -1.037118    -0.177917
 MO|
 MO|                          1.000000     1.000000     1.000000
 MO|
 MO|    1     1  O  1s        0.968109     0.003980     0.000000
 MO|    2     1  O  2s       -0.009085    -0.562065    -0.000000
 MO|    3     1  O  1s        0.052351    -0.147715    -0.000000
 MO|    4     1  O  1s        0.007731    -0.396331    -0.000000
 MO|    5     1  O  1py       0.000000    -0.000000    -0.230553
 MO|    6     1  O  1pz      -0.000000     0.000003    -0.000000
 MO|    7     1  O  1px       0.000000    -0.000000     0.233138
 MO|    8     1  O  1py      -0.000000    -0.000000    -0.292898
 MO|    9     1  O  1pz       0.000000    -0.000008    -0.000000
 MO|   10     1  O  1px      -0.000000    -0.000000     0.296182
 MO|   11     1  O  1py       0.000000    -0.000000    -0.282131
 MO|   12     1  O  1pz      -0.000000     0.000024    -0.000000
 MO|   13     1  O  1px       0.000000    -0.000000     0.285294
 MO|   14     1  O  1d-2     -0.000000    -0.000000     0.000000
 MO|   15     1  O  1d-1     -0.000000    -0.000000     0.000000
 MO|   16     1  O  1d0      -0.000000     0.000006    -0.000000
 MO|   17     1  O  1d+1     -0.000000    -0.000000    -0.000000
 MO|   18     1  O  1d+2      0.000000     0.000000     0.000000
 MO|   19     1  O  1d-2      0.000000    -0.000000     0.000000
 MO|   20     1  O  1d-1      0.000000    -0.000000    -0.000000
 MO|   21     1  O  1d0       0.000000    -0.000031     0.000000
 MO|   22     1  O  1d+1      0.000000    -0.000000     0.000000
 MO|   23     1  O  1d+2     -0.000000     0.000000     0.000000
 MO|   24     1  O  1f-3     -0.000000    -0.000000    -0.000000
 MO|   25     1  O  1f-2     -0.000000    -0.000000     0.000000
 MO|   26     1  O  1f-1      0.000000    -0.000000     0.000000
 MO|   27     1  O  1f0       0.000000    -0.000000     0.000000
 MO|   28     1  O  1f+1      0.000000    -0.000000    -0.000000
 MO|   29     1  O  1f+2     -0.000000    -0.000000     0.000000
 MO|   30     1  O  1f+3      0.000000     0.000000    -0.000000
 MO|   31     1  O  1s       -0.002150    -0.021167     0.000000
 MO|   32     1  O  1py      -0.000000    -0.000000    -0.101979
 MO|   33     1  O  1pz       0.000000    -0.000013    -0.000000
 MO|   34     1  O  1px      -0.000000    -0.000000     0.103122
 MO|   35     1  O  1d-2     -0.000000     0.000000     0.000000
 MO|   36     1  O  1d-1     -0.000000    -0.000000     0.000001
 MO|   37     1  O  1d0      -0.000000     0.000067    -0.000000
 MO|   38     1  O  1d+1     -0.000000    -0.000000    -0.000001
 MO|   39     1  O  1d+2      0.000000    -0.000000     0.000000
 MO|   40     1  O  1f-3     -0.000000     0.000000     0.000000
 MO|   41     1  O  1f-2      0.000000     0.000000     0.000000
 MO|   42     1  O  1f-1     -0.000000     0.000000     0.000000
 MO|   43     1  O  1f0      -0.000000    -0.000000    -0.000000
 MO|   44     1  O  1f+1      0.000000     0.000000    -0.000000
 MO|   45     1  O  1f+2      0.000000    -0.000000    -0.000000
 MO|   46     1  O  1f+3      0.000000    -0.000000     0.000000
 MO|
 MO| E(Fermi):           -0.177917 a.u.         -4.841357 eV

     1 P_Mix/Diag. 0.10E+00    5.6     0.14523177       -73.9019634716 -7.39E+01

 MO| ALPHA EIGENVALUES, OCCUPATION NUMBERS, AND SPHERICAL EIGENVECTORS AFTER SCF STEP 1
 MO|
 MO|                             1            2            3            4
 MO|                        -21.326724    -1.498769    -0.665708    -0.665688
 MO|
 MO|                          1.000000     1.000000     1.000000     1.000000
 MO|
 MO|    1     1  O  1s        0.983662    -0.002098     0.000000    -0.000016
 MO|    2     1  O  2s        0.007408    -0.605370     0.000000    -0.000035
 MO|    3     1  O  1s        0.034303    -0.182004     0.000000     0.000000
 MO|    4     1  O  1s       -0.001012    -0.338351     0.000000     0.000055
 MO|    5     1  O  1py       0.000000    -0.000000    -0.282337    -0.000000
 MO|    6     1  O  1pz      -0.000000     0.000003     0.000000    -0.397076
 MO|    7     1  O  1px       0.000000    -0.000000    -0.279207    -0.000000
 MO|    8     1  O  1py      -0.000000    -0.000000    -0.352716    -0.000000
 MO|    9     1  O  1pz       0.000000    -0.000006     0.000000    -0.496136
 MO|   10     1  O  1px      -0.000000    -0.000000    -0.348805    -0.000000
 MO|   11     1  O  1py       0.000000    -0.000000    -0.221124    -0.000000
 MO|   12     1  O  1pz      -0.000000     0.000017     0.000000    -0.310848
 MO|   13     1  O  1px       0.000000    -0.000000    -0.218672    -0.000000
 MO|   14     1  O  1d-2      0.000040    -0.000478    -0.000000    -0.000000
 MO|   15     1  O  1d-1     -0.000000     0.000000     0.000000    -0.000000
 MO|   16     1  O  1d0       0.000023    -0.000271     0.000000    -0.000004
 MO|   17     1  O  1d+1     -0.000000    -0.000000     0.000000    -0.000000
 MO|   18     1  O  1d+2     -0.000000     0.000005     0.000000     0.000000
 MO|   19     1  O  1d-2     -0.000016    -0.000924    -0.000000    -0.000000
 MO|   20     1  O  1d-1      0.000000     0.000000    -0.000000    -0.000000
 MO|   21     1  O  1d0      -0.000009    -0.000556     0.000000     0.000023
 MO|   22     1  O  1d+1      0.000000    -0.000000    -0.000000    -0.000000
 MO|   23     1  O  1d+2      0.000000     0.000010     0.000000     0.000000
 MO|   24     1  O  1f-3      0.000000    -0.000000    -0.000302    -0.000000
 MO|   25     1  O  1f-2     -0.000000     0.000000     0.000000    -0.000354
 MO|   26     1  O  1f-1      0.000000    -0.000000    -0.000080    -0.000000
 MO|   27     1  O  1f0       0.000000    -0.000000     0.000000    -0.000274
 MO|   28     1  O  1f+1      0.000000    -0.000000    -0.000079    -0.000000
 MO|   29     1  O  1f+2      0.000000    -0.000000    -0.000000     0.000004
 MO|   30     1  O  1f+3     -0.000000     0.000000     0.000312     0.000000
 MO|   31     1  O  1s        0.000617    -0.001188    -0.000000    -0.000038
 MO|   32     1  O  1py      -0.000000    -0.000000    -0.013155    -0.000000
 MO|   33     1  O  1pz       0.000000    -0.000009     0.000000    -0.018588
 MO|   34     1  O  1px      -0.000000    -0.000000    -0.013009    -0.000000
 MO|   35     1  O  1d-2      0.000006    -0.000076    -0.000000     0.000000
 MO|   36     1  O  1d-1     -0.000000     0.000000     0.000001    -0.000000
 MO|   37     1  O  1d0       0.000004     0.000003     0.000000    -0.000067
 MO|   38     1  O  1d+1     -0.000000    -0.000000     0.000001    -0.000000
 MO|   39     1  O  1d+2     -0.000000     0.000001     0.000000    -0.000000
 MO|   40     1  O  1f-3     -0.000000     0.000000    -0.000293    -0.000000
 MO|   41     1  O  1f-2      0.000000     0.000000     0.000000    -0.000345
 MO|   42     1  O  1f-1     -0.000000     0.000000    -0.000077    -0.000000
 MO|   43     1  O  1f0       0.000000    -0.000000     0.000000    -0.000266
 MO|   44     1  O  1f+1     -0.000000     0.000000    -0.000076    -0.000000
 MO|   45     1  O  1f+2     -0.000000    -0.000000    -0.000000     0.000004
 MO|   46     1  O  1f+3     -0.000000    -0.000000     0.000303     0.000000
 MO|
 MO|                             5
 MO|                         -0.658573
 MO|
 MO|                          1.000000
 MO|
 MO|    1     1  O  1s        0.000000
 MO|    2     1  O  2s        0.000000
 MO|    3     1  O  1s        0.000000
 MO|    4     1  O  1s        0.000000
 MO|    5     1  O  1py       0.279024
 MO|    6     1  O  1pz       0.000000
 MO|    7     1  O  1px      -0.282152
 MO|    8     1  O  1py       0.348155
 MO|    9     1  O  1pz       0.000000
 MO|   10     1  O  1px      -0.352058
 MO|   11     1  O  1py       0.219510
 MO|   12     1  O  1pz       0.000000
 MO|   13     1  O  1px      -0.221970
 MO|   14     1  O  1d-2     -0.000000
 MO|   15     1  O  1d-1     -0.000000
 MO|   16     1  O  1d0       0.000000
 MO|   17     1  O  1d+1      0.000000
 MO|   18     1  O  1d+2     -0.000000
 MO|   19     1  O  1d-2     -0.000000
 MO|   20     1  O  1d-1      0.000000
 MO|   21     1  O  1d0       0.000000
 MO|   22     1  O  1d+1     -0.000000
 MO|   23     1  O  1d+2     -0.000000
 MO|   24     1  O  1f-3     -0.000311
 MO|   25     1  O  1f-2      0.000000
 MO|   26     1  O  1f-1      0.000236
 MO|   27     1  O  1f0       0.000000
 MO|   28     1  O  1f+1     -0.000239
 MO|   29     1  O  1f+2     -0.000000
 MO|   30     1  O  1f+3     -0.000301
 MO|   31     1  O  1s       -0.000000
 MO|   32     1  O  1py       0.013432
 MO|   33     1  O  1pz       0.000000
 MO|   34     1  O  1px      -0.013583
 MO|   35     1  O  1d-2     -0.000000
 MO|   36     1  O  1d-1     -0.000001
 MO|   37     1  O  1d0       0.000000
 MO|   38     1  O  1d+1      0.000001
 MO|   39     1  O  1d+2     -0.000000
 MO|   40     1  O  1f-3     -0.000305
 MO|   41     1  O  1f-2      0.000000
 MO|   42     1  O  1f-1      0.000231
 MO|   43     1  O  1f0       0.000000
 MO|   44     1  O  1f+1     -0.000233
 MO|   45     1  O  1f+2      0.000000
 MO|   46     1  O  1f+3     -0.000295
 MO|
 MO| E(Fermi):           -0.658573 a.u.        -17.920681 eV


 MO| BETA EIGENVALUES, OCCUPATION NUMBERS, AND SPHERICAL EIGENVECTORS AFTER SCF STEP 1
 MO|
 MO|                             1            2            3
 MO|                        -20.166372    -1.044948    -0.210935
 MO|
 MO|                          1.000000     1.000000     1.000000
 MO|
 MO|    1     1  O  1s        0.969032    -0.003860     0.000000
 MO|    2     1  O  2s       -0.008300     0.562119    -0.000000
 MO|    3     1  O  1s        0.051176     0.148331    -0.000000
 MO|    4     1  O  1s        0.007289     0.395925    -0.000000
 MO|    5     1  O  1py       0.000000     0.000000    -0.233136
 MO|    6     1  O  1pz      -0.000000    -0.000003    -0.000000
 MO|    7     1  O  1px       0.000000     0.000000     0.235749
 MO|    8     1  O  1py      -0.000000     0.000000    -0.295893
 MO|    9     1  O  1pz       0.000000     0.000008    -0.000000
 MO|   10     1  O  1px      -0.000000     0.000000     0.299210
 MO|   11     1  O  1py       0.000000     0.000000    -0.281778
 MO|   12     1  O  1pz      -0.000000    -0.000025    -0.000000
 MO|   13     1  O  1px       0.000000     0.000000     0.284938
 MO|   14     1  O  1d-2     -0.000063    -0.000553     0.000000
 MO|   15     1  O  1d-1     -0.000000     0.000000     0.000000
 MO|   16     1  O  1d0      -0.000037    -0.000325    -0.000000
 MO|   17     1  O  1d+1     -0.000000    -0.000000    -0.000000
 MO|   18     1  O  1d+2      0.000001     0.000006     0.000000
 MO|   19     1  O  1d-2     -0.000017    -0.001114     0.000000
 MO|   20     1  O  1d-1      0.000000     0.000000    -0.000000
 MO|   21     1  O  1d0      -0.000010    -0.000613    -0.000000
 MO|   22     1  O  1d+1      0.000000    -0.000000     0.000000
 MO|   23     1  O  1d+2      0.000000     0.000012     0.000000
 MO|   24     1  O  1f-3     -0.000000     0.000000     0.000001
 MO|   25     1  O  1f-2      0.000000     0.000000    -0.000000
 MO|   26     1  O  1f-1      0.000000     0.000000    -0.000000
 MO|   27     1  O  1f0       0.000000     0.000000    -0.000000
 MO|   28     1  O  1f+1      0.000000     0.000000     0.000000
 MO|   29     1  O  1f+2     -0.000000    -0.000000     0.000000
 MO|   30     1  O  1f+3      0.000000    -0.000000     0.000000
 MO|   31     1  O  1s       -0.002015     0.021027     0.000000
 MO|   32     1  O  1py      -0.000000     0.000000    -0.093517
 MO|   33     1  O  1pz       0.000000     0.000013    -0.000000
 MO|   34     1  O  1px      -0.000000     0.000000     0.094566
 MO|   35     1  O  1d-2     -0.000004    -0.000856     0.000000
 MO|   36     1  O  1d-1     -0.000000     0.000000     0.000001
 MO|   37     1  O  1d0      -0.000002    -0.000561    -0.000000
 MO|   38     1  O  1d+1     -0.000000    -0.000000    -0.000001
 MO|   39     1  O  1d+2      0.000000     0.000010     0.000000
 MO|   40     1  O  1f-3     -0.000000    -0.000000    -0.000001
 MO|   41     1  O  1f-2      0.000000    -0.000000     0.000000
 MO|   42     1  O  1f-1     -0.000000    -0.000000     0.000001
 MO|   43     1  O  1f0      -0.000000     0.000000    -0.000000
 MO|   44     1  O  1f+1     -0.000000    -0.000000    -0.000001
 MO|   45     1  O  1f+2     -0.000000     0.000000    -0.000000
 MO|   46     1  O  1f+3      0.000000     0.000000    -0.000001
 MO|
 MO| E(Fermi):           -0.210935 a.u.         -5.739843 eV

     2 P_Mix/Diag. 0.10E+00    2.5     0.13249469       -73.9649502915 -6.30E-02

 MO| ALPHA EIGENVALUES, OCCUPATION NUMBERS, AND SPHERICAL EIGENVECTORS AFTER SCF STEP 2
 MO|
 MO|                             1            2            3            4
 MO|                        -21.274589    -1.495615    -0.673732    -0.673714
 MO|
 MO|                          1.000000     1.000000     1.000000     1.000000
 MO|
 MO|    1     1  O  1s        0.982850    -0.002484     0.000000    -0.000016
 MO|    2     1  O  2s        0.006670    -0.606553     0.000000    -0.000035
 MO|    3     1  O  1s        0.035308    -0.181527     0.000000     0.000000
 MO|    4     1  O  1s       -0.000559    -0.337596     0.000000     0.000055
 MO|    5     1  O  1py       0.000000    -0.000000    -0.282719    -0.000000
 MO|    6     1  O  1pz      -0.000000     0.000003     0.000000    -0.397614
 MO|    7     1  O  1px       0.000000    -0.000000    -0.279585    -0.000000
 MO|    8     1  O  1py      -0.000000    -0.000000    -0.353794    -0.000000
 MO|    9     1  O  1pz       0.000000    -0.000006     0.000000    -0.497654
 MO|   10     1  O  1px      -0.000000    -0.000000    -0.349872    -0.000000
 MO|   11     1  O  1py       0.000000    -0.000000    -0.219672    -0.000000
 MO|   12     1  O  1pz      -0.000000     0.000017     0.000000    -0.308805
 MO|   13     1  O  1px       0.000000    -0.000000    -0.217237    -0.000000
 MO|   14     1  O  1d-2      0.000077    -0.000927    -0.000000    -0.000000
 MO|   15     1  O  1d-1     -0.000000     0.000000     0.000000    -0.000000
 MO|   16     1  O  1d0       0.000045    -0.000530     0.000000    -0.000004
 MO|   17     1  O  1d+1     -0.000000    -0.000000     0.000000    -0.000000
 MO|   18     1  O  1d+2     -0.000001     0.000010    -0.000000     0.000000
 MO|   19     1  O  1d-2     -0.000030    -0.001791    -0.000000    -0.000000
 MO|   20     1  O  1d-1      0.000000     0.000000    -0.000000    -0.000000
 MO|   21     1  O  1d0      -0.000017    -0.001057     0.000000     0.000023
 MO|   22     1  O  1d+1      0.000000    -0.000000    -0.000000    -0.000000
 MO|   23     1  O  1d+2      0.000000     0.000020    -0.000000     0.000000
 MO|   24     1  O  1f-3      0.000000    -0.000000    -0.000582    -0.000000
 MO|   25     1  O  1f-2     -0.000000     0.000000     0.000000    -0.000684
 MO|   26     1  O  1f-1     -0.000000    -0.000000    -0.000154    -0.000000
 MO|   27     1  O  1f0       0.000000    -0.000000     0.000000    -0.000529
 MO|   28     1  O  1f+1      0.000000    -0.000000    -0.000152    -0.000000
 MO|   29     1  O  1f+2      0.000000    -0.000000    -0.000000     0.000008
 MO|   30     1  O  1f+3      0.000000     0.000000     0.000602     0.000000
 MO|   31     1  O  1s        0.000476    -0.000966    -0.000000    -0.000038
 MO|   32     1  O  1py      -0.000000    -0.000000    -0.012393    -0.000000
 MO|   33     1  O  1pz       0.000000    -0.000009     0.000000    -0.017517
 MO|   34     1  O  1px      -0.000000    -0.000000    -0.012256    -0.000000
 MO|   35     1  O  1d-2      0.000012    -0.000145    -0.000000     0.000000
 MO|   36     1  O  1d-1     -0.000000     0.000000     0.000001    -0.000000
 MO|   37     1  O  1d0       0.000007    -0.000037     0.000000    -0.000067
 MO|   38     1  O  1d+1     -0.000000    -0.000000     0.000001    -0.000000
 MO|   39     1  O  1d+2     -0.000000     0.000002     0.000000    -0.000000
 MO|   40     1  O  1f-3     -0.000000     0.000000    -0.000560    -0.000000
 MO|   41     1  O  1f-2      0.000000     0.000000     0.000000    -0.000658
 MO|   42     1  O  1f-1      0.000000     0.000000    -0.000148    -0.000000
 MO|   43     1  O  1f0       0.000000    -0.000000     0.000000    -0.000509
 MO|   44     1  O  1f+1      0.000000     0.000000    -0.000146    -0.000000
 MO|   45     1  O  1f+2     -0.000000    -0.000000    -0.000000     0.000007
 MO|   46     1  O  1f+3      0.000000    -0.000000     0.000579     0.000000
 MO|
 MO|                             5
 MO|                         -0.659982
 MO|
 MO|                          1.000000
 MO|
 MO|    1     1  O  1s        0.000000
 MO|    2     1  O  2s        0.000000
 MO|    3     1  O  1s        0.000000
 MO|    4     1  O  1s        0.000000
 MO|    5     1  O  1py       0.279219
 MO|    6     1  O  1pz       0.000000
 MO|    7     1  O  1px      -0.282350
 MO|    8     1  O  1py       0.348605
 MO|    9     1  O  1pz       0.000000
 MO|   10     1  O  1px      -0.352513
 MO|   11     1  O  1py       0.218889
 MO|   12     1  O  1pz       0.000000
 MO|   13     1  O  1px      -0.221343
 MO|   14     1  O  1d-2      0.000000
 MO|   15     1  O  1d-1     -0.000000
 MO|   16     1  O  1d0       0.000000
 MO|   17     1  O  1d+1      0.000000
 MO|   18     1  O  1d+2     -0.000000
 MO|   19     1  O  1d-2      0.000000
 MO|   20     1  O  1d-1      0.000000
 MO|   21     1  O  1d0       0.000000
 MO|   22     1  O  1d+1     -0.000000
 MO|   23     1  O  1d+2     -0.000000
 MO|   24     1  O  1f-3     -0.000601
 MO|   25     1  O  1f-2      0.000000
 MO|   26     1  O  1f-1      0.000456
 MO|   27     1  O  1f0       0.000000
 MO|   28     1  O  1f+1     -0.000461
 MO|   29     1  O  1f+2     -0.000000
 MO|   30     1  O  1f+3     -0.000581
 MO|   31     1  O  1s       -0.000000
 MO|   32     1  O  1py       0.013070
 MO|   33     1  O  1pz       0.000000
 MO|   34     1  O  1px      -0.013216
 MO|   35     1  O  1d-2     -0.000000
 MO|   36     1  O  1d-1     -0.000001
 MO|   37     1  O  1d0       0.000000
 MO|   38     1  O  1d+1      0.000001
 MO|   39     1  O  1d+2     -0.000000
 MO|   40     1  O  1f-3     -0.000585
 MO|   41     1  O  1f-2      0.000000
 MO|   42     1  O  1f-1      0.000443
 MO|   43     1  O  1f0       0.000000
 MO|   44     1  O  1f+1     -0.000448
 MO|   45     1  O  1f+2      0.000000
 MO|   46     1  O  1f+3     -0.000566
 MO|
 MO| E(Fermi):           -0.659982 a.u.        -17.959023 eV


 MO| BETA EIGENVALUES, OCCUPATION NUMBERS, AND SPHERICAL EIGENVECTORS AFTER SCF STEP 2
 MO|
 MO|                             1            2            3
 MO|                        -20.219792    -1.051386    -0.240618
 MO|
 MO|                          1.000000     1.000000     1.000000
 MO|
 MO|    1     1  O  1s       -0.969863     0.003770    -0.000000
 MO|    2     1  O  2s        0.007587    -0.562062     0.000000
 MO|    3     1  O  1s       -0.050119    -0.148820     0.000000
 MO|    4     1  O  1s       -0.006890    -0.395703     0.000000
 MO|    5     1  O  1py      -0.000000    -0.000000     0.235316
 MO|    6     1  O  1pz       0.000000     0.000004     0.000000
 MO|    7     1  O  1px      -0.000000    -0.000000    -0.237954
 MO|    8     1  O  1py       0.000000    -0.000000     0.298449
 MO|    9     1  O  1pz      -0.000000    -0.000008     0.000000
 MO|   10     1  O  1px       0.000000    -0.000000    -0.301796
 MO|   11     1  O  1py      -0.000000    -0.000000     0.281132
 MO|   12     1  O  1pz       0.000000     0.000025     0.000000
 MO|   13     1  O  1px      -0.000000    -0.000000    -0.284284
 MO|   14     1  O  1d-2      0.000122     0.001070    -0.000000
 MO|   15     1  O  1d-1      0.000000    -0.000000    -0.000000
 MO|   16     1  O  1d0       0.000070     0.000624     0.000000
 MO|   17     1  O  1d+1      0.000000     0.000000     0.000000
 MO|   18     1  O  1d+2     -0.000001    -0.000012    -0.000000
 MO|   19     1  O  1d-2      0.000032     0.002165    -0.000000
 MO|   20     1  O  1d-1     -0.000000    -0.000000     0.000000
 MO|   21     1  O  1d0       0.000019     0.001219     0.000000
 MO|   22     1  O  1d+1     -0.000000     0.000000    -0.000000
 MO|   23     1  O  1d+2     -0.000000    -0.000024    -0.000000
 MO|   24     1  O  1f-3      0.000000    -0.000000     0.000002
 MO|   25     1  O  1f-2     -0.000000    -0.000000    -0.000000
 MO|   26     1  O  1f-1     -0.000000    -0.000000    -0.000001
 MO|   27     1  O  1f0      -0.000000    -0.000000    -0.000000
 MO|   28     1  O  1f+1     -0.000000    -0.000000     0.000001
 MO|   29     1  O  1f+2      0.000000     0.000000    -0.000000
 MO|   30     1  O  1f+3     -0.000000     0.000000     0.000002
 MO|   31     1  O  1s        0.001893    -0.020913    -0.000000
 MO|   32     1  O  1py       0.000000    -0.000000     0.086721
 MO|   33     1  O  1pz      -0.000000    -0.000013     0.000000
 MO|   34     1  O  1px       0.000000    -0.000000    -0.087693
 MO|   35     1  O  1d-2      0.000007     0.001627    -0.000000
 MO|   36     1  O  1d-1      0.000000    -0.000000    -0.000001
 MO|   37     1  O  1d0       0.000004     0.001008     0.000000
 MO|   38     1  O  1d+1      0.000000     0.000000     0.000001
 MO|   39     1  O  1d+2     -0.000000    -0.000018    -0.000000
 MO|   40     1  O  1f-3      0.000000     0.000000     0.000008
 MO|   41     1  O  1f-2     -0.000000     0.000000    -0.000000
 MO|   42     1  O  1f-1      0.000000     0.000000    -0.000007
 MO|   43     1  O  1f0       0.000000    -0.000000    -0.000000
 MO|   44     1  O  1f+1      0.000000     0.000000     0.000007
 MO|   45     1  O  1f+2      0.000000    -0.000000     0.000000
 MO|   46     1  O  1f+3     -0.000000    -0.000000     0.000008
 MO|
 MO| E(Fermi):           -0.240618 a.u.         -6.547542 eV

     3 P_Mix/Diag. 0.10E+00    2.3     0.12085698       -74.0267228440 -6.18E-02

 MO| ALPHA EIGENVALUES, OCCUPATION NUMBERS, AND SPHERICAL EIGENVECTORS AFTER SCF STEP 3
 MO|
 MO|                             1            2            3            4
 MO|                        -21.226310    -1.492170    -0.680462    -0.680445
 MO|
 MO|                          1.000000     1.000000     1.000000     1.000000
 MO|
 MO|    1     1  O  1s        0.982105    -0.002834     0.000000    -0.000016
 MO|    2     1  O  2s        0.005996    -0.607568     0.000000    -0.000035
 MO|    3     1  O  1s        0.036229    -0.181026     0.000000     0.000000
 MO|    4     1  O  1s       -0.000146    -0.337027     0.000000     0.000055
 MO|    5     1  O  1py       0.000000    -0.000000    -0.283012    -0.000000
 MO|    6     1  O  1pz      -0.000000     0.000002     0.000000    -0.398027
 MO|    7     1  O  1px       0.000000    -0.000000    -0.279874    -0.000000
 MO|    8     1  O  1py      -0.000000    -0.000000    -0.354751    -0.000000
 MO|    9     1  O  1pz       0.000000    -0.000006     0.000000    -0.499001
 MO|   10     1  O  1px      -0.000000    -0.000000    -0.350818    -0.000000
 MO|   11     1  O  1py       0.000000    -0.000000    -0.218425    -0.000000
 MO|   12     1  O  1pz      -0.000000     0.000017     0.000000    -0.307049
 MO|   13     1  O  1px       0.000000    -0.000000    -0.216003    -0.000000
 MO|   14     1  O  1d-2      0.000112    -0.001346    -0.000000    -0.000000
 MO|   15     1  O  1d-1     -0.000000     0.000000     0.000000    -0.000000
 MO|   16     1  O  1d0       0.000065    -0.000772     0.000000    -0.000004
 MO|   17     1  O  1d+1     -0.000000    -0.000000     0.000000    -0.000000
 MO|   18     1  O  1d+2     -0.000001     0.000015    -0.000000     0.000000
 MO|   19     1  O  1d-2     -0.000043    -0.002603    -0.000000    -0.000000
 MO|   20     1  O  1d-1      0.000000     0.000000    -0.000000    -0.000000
 MO|   21     1  O  1d0      -0.000025    -0.001526     0.000000     0.000023
 MO|   22     1  O  1d+1      0.000000    -0.000000    -0.000000    -0.000000
 MO|   23     1  O  1d+2      0.000000     0.000029    -0.000000     0.000000
 MO|   24     1  O  1f-3      0.000000    -0.000000    -0.000843    -0.000000
 MO|   25     1  O  1f-2     -0.000000     0.000000     0.000000    -0.000990
 MO|   26     1  O  1f-1      0.000000    -0.000000    -0.000223    -0.000000
 MO|   27     1  O  1f0       0.000000     0.000000     0.000000    -0.000766
 MO|   28     1  O  1f+1      0.000000    -0.000000    -0.000220    -0.000000
 MO|   29     1  O  1f+2      0.000000    -0.000000    -0.000000     0.000011
 MO|   30     1  O  1f+3     -0.000000     0.000000     0.000872     0.000000
 MO|   31     1  O  1s        0.000348    -0.000761    -0.000000    -0.000038
 MO|   32     1  O  1py      -0.000000    -0.000000    -0.011726    -0.000000
 MO|   33     1  O  1pz       0.000000    -0.000009     0.000000    -0.016578
 MO|   34     1  O  1px      -0.000000    -0.000000    -0.011596    -0.000000
 MO|   35     1  O  1d-2      0.000017    -0.000208    -0.000000     0.000000
 MO|   36     1  O  1d-1     -0.000000     0.000000     0.000001    -0.000000
 MO|   37     1  O  1d0       0.000010    -0.000072     0.000000    -0.000068
 MO|   38     1  O  1d+1     -0.000000    -0.000000     0.000001    -0.000000
 MO|   39     1  O  1d+2     -0.000000     0.000002     0.000000    -0.000000
 MO|   40     1  O  1f-3     -0.000000     0.000000    -0.000804    -0.000000
 MO|   41     1  O  1f-2      0.000000     0.000000     0.000000    -0.000944
 MO|   42     1  O  1f-1     -0.000000     0.000000    -0.000212    -0.000000
 MO|   43     1  O  1f0       0.000000    -0.000000     0.000000    -0.000730
 MO|   44     1  O  1f+1     -0.000000     0.000000    -0.000210    -0.000000
 MO|   45     1  O  1f+2     -0.000000    -0.000000    -0.000000     0.000011
 MO|   46     1  O  1f+3      0.000000    -0.000000     0.000831     0.000000
 MO|
 MO|                             5
 MO|                         -0.660586
 MO|
 MO|                          1.000000
 MO|
 MO|    1     1  O  1s        0.000000
 MO|    2     1  O  2s        0.000000
 MO|    3     1  O  1s        0.000000
 MO|    4     1  O  1s        0.000000
 MO|    5     1  O  1py       0.279327
 MO|    6     1  O  1pz       0.000000
 MO|    7     1  O  1px      -0.282459
 MO|    8     1  O  1py       0.348965
 MO|    9     1  O  1pz       0.000000
 MO|   10     1  O  1px      -0.352878
 MO|   11     1  O  1py       0.218444
 MO|   12     1  O  1pz       0.000000
 MO|   13     1  O  1px      -0.220893
 MO|   14     1  O  1d-2      0.000000
 MO|   15     1  O  1d-1     -0.000000
 MO|   16     1  O  1d0       0.000000
 MO|   17     1  O  1d+1      0.000000
 MO|   18     1  O  1d+2     -0.000000
 MO|   19     1  O  1d-2      0.000000
 MO|   20     1  O  1d-1      0.000000
 MO|   21     1  O  1d0       0.000000
 MO|   22     1  O  1d+1     -0.000000
 MO|   23     1  O  1d+2     -0.000000
 MO|   24     1  O  1f-3     -0.000870
 MO|   25     1  O  1f-2      0.000000
 MO|   26     1  O  1f-1      0.000659
 MO|   27     1  O  1f0       0.000000
 MO|   28     1  O  1f+1     -0.000667
 MO|   29     1  O  1f+2     -0.000000
 MO|   30     1  O  1f+3     -0.000841
 MO|   31     1  O  1s       -0.000000
 MO|   32     1  O  1py       0.012773
 MO|   33     1  O  1pz       0.000000
 MO|   34     1  O  1px      -0.012916
 MO|   35     1  O  1d-2     -0.000000
 MO|   36     1  O  1d-1     -0.000001
 MO|   37     1  O  1d0       0.000000
 MO|   38     1  O  1d+1      0.000001
 MO|   39     1  O  1d+2     -0.000000
 MO|   40     1  O  1f-3     -0.000844
 MO|   41     1  O  1f-2      0.000000
 MO|   42     1  O  1f-1      0.000639
 MO|   43     1  O  1f0       0.000000
 MO|   44     1  O  1f+1     -0.000646
 MO|   45     1  O  1f+2      0.000000
 MO|   46     1  O  1f+3     -0.000816
 MO|
 MO| E(Fermi):           -0.660586 a.u.        -17.975450 eV


 MO| BETA EIGENVALUES, OCCUPATION NUMBERS, AND SPHERICAL EIGENVECTORS AFTER SCF STEP 3
 MO|
 MO|                             1            2            3
 MO|                        -20.266712    -1.056685    -0.267304
 MO|
 MO|                          1.000000     1.000000     1.000000
 MO|
 MO|    1     1  O  1s       -0.970614     0.003704    -0.000000
 MO|    2     1  O  2s        0.006939    -0.561925     0.000000
 MO|    3     1  O  1s       -0.049166    -0.149205     0.000000
 MO|    4     1  O  1s       -0.006528    -0.395620     0.000000
 MO|    5     1  O  1py      -0.000000    -0.000000     0.237185
 MO|    6     1  O  1pz       0.000000     0.000004     0.000000
 MO|    7     1  O  1px      -0.000000    -0.000000    -0.239844
 MO|    8     1  O  1py       0.000000    -0.000000     0.300665
 MO|    9     1  O  1pz      -0.000000    -0.000008     0.000000
 MO|   10     1  O  1px       0.000000    -0.000000    -0.304036
 MO|   11     1  O  1py      -0.000000    -0.000000     0.280336
 MO|   12     1  O  1pz       0.000000     0.000026     0.000000
 MO|   13     1  O  1px      -0.000000    -0.000000    -0.283479
 MO|   14     1  O  1d-2      0.000176     0.001555    -0.000000
 MO|   15     1  O  1d-1      0.000000    -0.000000    -0.000000
 MO|   16     1  O  1d0       0.000102     0.000904     0.000000
 MO|   17     1  O  1d+1      0.000000     0.000000     0.000000
 MO|   18     1  O  1d+2     -0.000002    -0.000017    -0.000000
 MO|   19     1  O  1d-2      0.000046     0.003153     0.000000
 MO|   20     1  O  1d-1     -0.000000    -0.000000     0.000000
 MO|   21     1  O  1d0       0.000026     0.001789     0.000000
 MO|   22     1  O  1d+1     -0.000000     0.000000    -0.000000
 MO|   23     1  O  1d+2     -0.000001    -0.000035    -0.000000
 MO|   24     1  O  1f-3      0.000000    -0.000000     0.000006
 MO|   25     1  O  1f-2     -0.000000    -0.000000    -0.000000
 MO|   26     1  O  1f-1      0.000000    -0.000000    -0.000005
 MO|   27     1  O  1f0      -0.000000    -0.000000    -0.000000
 MO|   28     1  O  1f+1      0.000000    -0.000000     0.000005
 MO|   29     1  O  1f+2      0.000000     0.000000    -0.000000
 MO|   30     1  O  1f+3     -0.000000     0.000000     0.000006
 MO|   31     1  O  1s        0.001782    -0.020820    -0.000000
 MO|   32     1  O  1py       0.000000    -0.000000     0.081128
 MO|   33     1  O  1pz      -0.000000    -0.000014     0.000000
 MO|   34     1  O  1px       0.000000    -0.000000    -0.082037
 MO|   35     1  O  1d-2      0.000010     0.002326    -0.000000
 MO|   36     1  O  1d-1      0.000000    -0.000000    -0.000001
 MO|   37     1  O  1d0       0.000006     0.001412     0.000000
 MO|   38     1  O  1d+1      0.000000     0.000000     0.000001
 MO|   39     1  O  1d+2     -0.000000    -0.000026    -0.000000
 MO|   40     1  O  1f-3      0.000000     0.000000     0.000020
 MO|   41     1  O  1f-2     -0.000000     0.000000    -0.000000
 MO|   42     1  O  1f-1      0.000000     0.000000    -0.000015
 MO|   43     1  O  1f0       0.000000    -0.000000    -0.000000
 MO|   44     1  O  1f+1      0.000000     0.000000     0.000015
 MO|   45     1  O  1f+2      0.000000    -0.000000     0.000000
 MO|   46     1  O  1f+3     -0.000000    -0.000000     0.000019
 MO|
 MO| E(Fermi):           -0.267304 a.u.         -7.273721 eV

     4 P_Mix/Diag. 0.10E+00    2.3     0.11022694       -74.0864813705 -5.98E-02

 MO| ALPHA EIGENVALUES, OCCUPATION NUMBERS, AND SPHERICAL EIGENVECTORS AFTER SCF STEP 4
 MO|
 MO|                             1            2            3            4
 MO|                        -21.181733    -1.488567    -0.686114    -0.686098
 MO|
 MO|                          1.000000     1.000000     1.000000     1.000000
 MO|
 MO|    1     1  O  1s        0.981424    -0.003152     0.000000    -0.000016
 MO|    2     1  O  2s        0.005380    -0.608439     0.000000    -0.000035
 MO|    3     1  O  1s        0.037073    -0.180514     0.000000     0.000000
 MO|    4     1  O  1s        0.000230    -0.336608     0.000000     0.000056
 MO|    5     1  O  1py       0.000000    -0.000000    -0.283234    -0.000000
 MO|    6     1  O  1pz      -0.000000     0.000002     0.000000    -0.398339
 MO|    7     1  O  1px       0.000000    -0.000000    -0.280093    -0.000000
 MO|    8     1  O  1py      -0.000000    -0.000000    -0.355604    -0.000000
 MO|    9     1  O  1pz       0.000000    -0.000006     0.000000    -0.500200
 MO|   10     1  O  1px      -0.000000    -0.000000    -0.351661    -0.000000
 MO|   11     1  O  1py       0.000000    -0.000000    -0.217349    -0.000000
 MO|   12     1  O  1pz      -0.000000     0.000017     0.000000    -0.305533
 MO|   13     1  O  1px       0.000000    -0.000000    -0.214939    -0.000000
 MO|   14     1  O  1d-2      0.000144    -0.001737    -0.000000    -0.000000
 MO|   15     1  O  1d-1     -0.000000     0.000000     0.000000    -0.000000
 MO|   16     1  O  1d0       0.000083    -0.000998     0.000000    -0.000004
 MO|   17     1  O  1d+1     -0.000000    -0.000000     0.000000    -0.000000
 MO|   18     1  O  1d+2     -0.000002     0.000019    -0.000000     0.000000
 MO|   19     1  O  1d-2     -0.000055    -0.003363    -0.000000     0.000000
 MO|   20     1  O  1d-1      0.000000     0.000000    -0.000000    -0.000000
 MO|   21     1  O  1d0      -0.000032    -0.001966     0.000000     0.000023
 MO|   22     1  O  1d+1      0.000000    -0.000000    -0.000000    -0.000000
 MO|   23     1  O  1d+2      0.000001     0.000038    -0.000000     0.000000
 MO|   24     1  O  1f-3      0.000000    -0.000000    -0.001085    -0.000000
 MO|   25     1  O  1f-2     -0.000000     0.000000     0.000000    -0.001274
 MO|   26     1  O  1f-1      0.000000    -0.000000    -0.000286    -0.000000
 MO|   27     1  O  1f0       0.000000     0.000000     0.000000    -0.000986
 MO|   28     1  O  1f+1     -0.000000    -0.000000    -0.000283    -0.000000
 MO|   29     1  O  1f+2      0.000000    -0.000000    -0.000000     0.000014
 MO|   30     1  O  1f+3     -0.000000     0.000000     0.001122     0.000000
 MO|   31     1  O  1s        0.000232    -0.000570    -0.000000    -0.000038
 MO|   32     1  O  1py      -0.000000    -0.000000    -0.011136    -0.000000
 MO|   33     1  O  1pz       0.000000    -0.000009     0.000000    -0.015749
 MO|   34     1  O  1px      -0.000000    -0.000000    -0.011012    -0.000000
 MO|   35     1  O  1d-2      0.000022    -0.000266    -0.000000     0.000000
 MO|   36     1  O  1d-1     -0.000000     0.000000     0.000001    -0.000000
 MO|   37     1  O  1d0       0.000013    -0.000105     0.000000    -0.000068
 MO|   38     1  O  1d+1     -0.000000    -0.000000     0.000001    -0.000000
 MO|   39     1  O  1d+2     -0.000000     0.000003    -0.000000    -0.000000
 MO|   40     1  O  1f-3     -0.000000     0.000000    -0.001027    -0.000000
 MO|   41     1  O  1f-2      0.000000     0.000000     0.000000    -0.001206
 MO|   42     1  O  1f-1     -0.000000     0.000000    -0.000271    -0.000000
 MO|   43     1  O  1f0       0.000000    -0.000000     0.000000    -0.000933
 MO|   44     1  O  1f+1      0.000000     0.000000    -0.000268    -0.000000
 MO|   45     1  O  1f+2     -0.000000    -0.000000    -0.000000     0.000013
 MO|   46     1  O  1f+3     -0.000000    -0.000000     0.001061     0.000000
 MO|
 MO|                             5
 MO|                         -0.660569
 MO|
 MO|                          1.000000
 MO|
 MO|    1     1  O  1s        0.000000
 MO|    2     1  O  2s        0.000000
 MO|    3     1  O  1s        0.000000
 MO|    4     1  O  1s        0.000000
 MO|    5     1  O  1py       0.279366
 MO|    6     1  O  1pz       0.000000
 MO|    7     1  O  1px      -0.282498
 MO|    8     1  O  1py       0.349252
 MO|    9     1  O  1pz       0.000000
 MO|   10     1  O  1px      -0.353167
 MO|   11     1  O  1py       0.218141
 MO|   12     1  O  1pz       0.000000
 MO|   13     1  O  1px      -0.220586
 MO|   14     1  O  1d-2      0.000000
 MO|   15     1  O  1d-1     -0.000000
 MO|   16     1  O  1d0       0.000000
 MO|   17     1  O  1d+1      0.000000
 MO|   18     1  O  1d+2     -0.000000
 MO|   19     1  O  1d-2      0.000000
 MO|   20     1  O  1d-1      0.000000
 MO|   21     1  O  1d0       0.000000
 MO|   22     1  O  1d+1     -0.000000
 MO|   23     1  O  1d+2     -0.000000
 MO|   24     1  O  1f-3     -0.001119
 MO|   25     1  O  1f-2      0.000000
 MO|   26     1  O  1f-1      0.000848
 MO|   27     1  O  1f0       0.000000
 MO|   28     1  O  1f+1     -0.000858
 MO|   29     1  O  1f+2     -0.000000
 MO|   30     1  O  1f+3     -0.001082
 MO|   31     1  O  1s       -0.000000
 MO|   32     1  O  1py       0.012531
 MO|   33     1  O  1pz       0.000000
 MO|   34     1  O  1px      -0.012671
 MO|   35     1  O  1d-2      0.000000
 MO|   36     1  O  1d-1     -0.000001
 MO|   37     1  O  1d0       0.000000
 MO|   38     1  O  1d+1      0.000001
 MO|   39     1  O  1d+2     -0.000000
 MO|   40     1  O  1f-3     -0.001082
 MO|   41     1  O  1f-2      0.000000
 MO|   42     1  O  1f-1      0.000819
 MO|   43     1  O  1f0       0.000000
 MO|   44     1  O  1f+1     -0.000828
 MO|   45     1  O  1f+2      0.000000
 MO|   46     1  O  1f+3     -0.001046
 MO|
 MO| E(Fermi):           -0.660569 a.u.        -17.975002 eV


 MO| BETA EIGENVALUES, OCCUPATION NUMBERS, AND SPHERICAL EIGENVECTORS AFTER SCF STEP 4
 MO|
 MO|                             1            2            3
 MO|                        -20.307995    -1.061043    -0.291304
 MO|
 MO|                          1.000000     1.000000     1.000000
 MO|
 MO|    1     1  O  1s        0.971291     0.003657    -0.000000
 MO|    2     1  O  2s       -0.006352    -0.561730     0.000000
 MO|    3     1  O  1s        0.048307    -0.149509     0.000000
 MO|    4     1  O  1s        0.006201    -0.395640     0.000000
 MO|    5     1  O  1py       0.000000    -0.000000     0.238809
 MO|    6     1  O  1pz      -0.000000     0.000004     0.000000
 MO|    7     1  O  1px       0.000000    -0.000000    -0.241487
 MO|    8     1  O  1py      -0.000000    -0.000000     0.302607
 MO|    9     1  O  1pz       0.000000    -0.000008     0.000000
 MO|   10     1  O  1px      -0.000000    -0.000000    -0.306000
 MO|   11     1  O  1py       0.000000    -0.000000     0.279471
 MO|   12     1  O  1pz      -0.000000     0.000026     0.000000
 MO|   13     1  O  1px       0.000000    -0.000000    -0.282605
 MO|   14     1  O  1d-2     -0.000226     0.002007     0.000000
 MO|   15     1  O  1d-1      0.000000    -0.000000    -0.000000
 MO|   16     1  O  1d0      -0.000130     0.001165     0.000000
 MO|   17     1  O  1d+1     -0.000000     0.000000     0.000000
 MO|   18     1  O  1d+2      0.000003    -0.000022    -0.000000
 MO|   19     1  O  1d-2     -0.000058     0.004081     0.000000
 MO|   20     1  O  1d-1      0.000000    -0.000000     0.000000
 MO|   21     1  O  1d0      -0.000033     0.002325     0.000000
 MO|   22     1  O  1d+1      0.000000     0.000000    -0.000000
 MO|   23     1  O  1d+2      0.000001    -0.000046    -0.000000
 MO|   24     1  O  1f-3     -0.000000    -0.000000     0.000014
 MO|   25     1  O  1f-2      0.000000    -0.000000    -0.000000
 MO|   26     1  O  1f-1      0.000000    -0.000000    -0.000010
 MO|   27     1  O  1f0       0.000000    -0.000000    -0.000000
 MO|   28     1  O  1f+1     -0.000000    -0.000000     0.000010
 MO|   29     1  O  1f+2     -0.000000     0.000000    -0.000000
 MO|   30     1  O  1f+3      0.000000     0.000000     0.000013
 MO|   31     1  O  1s       -0.001682    -0.020744    -0.000000
 MO|   32     1  O  1py      -0.000000    -0.000000     0.076435
 MO|   33     1  O  1pz       0.000000    -0.000014     0.000000
 MO|   34     1  O  1px      -0.000000    -0.000000    -0.077292
 MO|   35     1  O  1d-2     -0.000013     0.002959     0.000000
 MO|   36     1  O  1d-1     -0.000000    -0.000000    -0.000002
 MO|   37     1  O  1d0      -0.000008     0.001778     0.000000
 MO|   38     1  O  1d+1     -0.000000     0.000000     0.000002
 MO|   39     1  O  1d+2      0.000000    -0.000033    -0.000000
 MO|   40     1  O  1f-3     -0.000000     0.000000     0.000034
 MO|   41     1  O  1f-2      0.000000     0.000000    -0.000000
 MO|   42     1  O  1f-1     -0.000000     0.000000    -0.000026
 MO|   43     1  O  1f0      -0.000000    -0.000000    -0.000000
 MO|   44     1  O  1f+1     -0.000000     0.000000     0.000027
 MO|   45     1  O  1f+2     -0.000000    -0.000000     0.000000
 MO|   46     1  O  1f+3      0.000000    -0.000000     0.000033
 MO|
 MO| E(Fermi):           -0.291304 a.u.         -7.926783 eV

     5 P_Mix/Diag. 0.10E+00    2.3     0.10051985       -74.1436714394 -5.72E-02

 MO| ALPHA EIGENVALUES, OCCUPATION NUMBERS, AND SPHERICAL EIGENVECTORS AFTER SCF STEP 5
 MO|
 MO|                             1            2            3            4
 MO|                        -21.140671    -1.484902    -0.690863    -0.690849
 MO|
 MO|                          1.000000     1.000000     1.000000     1.000000
 MO|
 MO|    1     1  O  1s        0.980800     0.003442     0.000000    -0.000015
 MO|    2     1  O  2s        0.004818     0.609186     0.000000    -0.000035
 MO|    3     1  O  1s        0.037846     0.180000     0.000000     0.000000
 MO|    4     1  O  1s        0.000573     0.336313     0.000000     0.000056
 MO|    5     1  O  1py       0.000000     0.000000    -0.283398    -0.000000
 MO|    6     1  O  1pz      -0.000000    -0.000002     0.000000    -0.398570
 MO|    7     1  O  1px       0.000000     0.000000    -0.280256    -0.000000
 MO|    8     1  O  1py      -0.000000     0.000000    -0.356366    -0.000000
 MO|    9     1  O  1pz       0.000000     0.000006     0.000000    -0.501272
 MO|   10     1  O  1px      -0.000000     0.000000    -0.352415    -0.000000
 MO|   11     1  O  1py       0.000000     0.000000    -0.216418    -0.000000
 MO|   12     1  O  1pz      -0.000000    -0.000017     0.000000    -0.304223
 MO|   13     1  O  1px       0.000000     0.000000    -0.214019    -0.000000
 MO|   14     1  O  1d-2      0.000174     0.002103    -0.000000    -0.000000
 MO|   15     1  O  1d-1     -0.000000    -0.000000     0.000000    -0.000000
 MO|   16     1  O  1d0       0.000101     0.001209     0.000000    -0.000004
 MO|   17     1  O  1d+1     -0.000000     0.000000     0.000000    -0.000000
 MO|   18     1  O  1d+2     -0.000002    -0.000023    -0.000000     0.000000
 MO|   19     1  O  1d-2     -0.000066     0.004075    -0.000000     0.000000
 MO|   20     1  O  1d-1      0.000000    -0.000000    -0.000000    -0.000000
 MO|   21     1  O  1d0      -0.000038     0.002377     0.000000     0.000023
 MO|   22     1  O  1d+1      0.000000     0.000000    -0.000000    -0.000000
 MO|   23     1  O  1d+2      0.000001    -0.000045    -0.000000    -0.000000
 MO|   24     1  O  1f-3      0.000000     0.000000    -0.001309    -0.000000
 MO|   25     1  O  1f-2     -0.000000    -0.000000     0.000000    -0.001537
 MO|   26     1  O  1f-1      0.000000     0.000000    -0.000345    -0.000000
 MO|   27     1  O  1f0      -0.000000    -0.000000     0.000000    -0.001190
 MO|   28     1  O  1f+1     -0.000000     0.000000    -0.000342    -0.000000
 MO|   29     1  O  1f+2      0.000000     0.000000    -0.000000     0.000017
 MO|   30     1  O  1f+3     -0.000000    -0.000000     0.001353     0.000000
 MO|   31     1  O  1s        0.000126     0.000393    -0.000000    -0.000038
 MO|   32     1  O  1py      -0.000000     0.000000    -0.010610    -0.000000
 MO|   33     1  O  1pz       0.000000     0.000009     0.000000    -0.015011
 MO|   34     1  O  1px      -0.000000     0.000000    -0.010493    -0.000000
 MO|   35     1  O  1d-2      0.000026     0.000318    -0.000000     0.000000
 MO|   36     1  O  1d-1     -0.000000    -0.000000     0.000001    -0.000000
 MO|   37     1  O  1d0       0.000015     0.000134     0.000000    -0.000068
 MO|   38     1  O  1d+1     -0.000000     0.000000     0.000001    -0.000000
 MO|   39     1  O  1d+2     -0.000000    -0.000004    -0.000000    -0.000000
 MO|   40     1  O  1f-3     -0.000000     0.000000    -0.001231    -0.000000
 MO|   41     1  O  1f-2      0.000000    -0.000000     0.000000    -0.001445
 MO|   42     1  O  1f-1     -0.000000    -0.000000    -0.000325    -0.000000
 MO|   43     1  O  1f0       0.000000     0.000001     0.000000    -0.001119
 MO|   44     1  O  1f+1      0.000000    -0.000000    -0.000321    -0.000000
 MO|   45     1  O  1f+2     -0.000000     0.000000    -0.000000     0.000016
 MO|   46     1  O  1f+3      0.000000    -0.000000     0.001272     0.000000
 MO|
 MO|                             5
 MO|                         -0.660077
 MO|
 MO|                          1.000000
 MO|
 MO|    1     1  O  1s        0.000000
 MO|    2     1  O  2s        0.000000
 MO|    3     1  O  1s        0.000000
 MO|    4     1  O  1s        0.000000
 MO|    5     1  O  1py       0.279350
 MO|    6     1  O  1pz       0.000000
 MO|    7     1  O  1px      -0.282482
 MO|    8     1  O  1py       0.349476
 MO|    9     1  O  1pz       0.000000
 MO|   10     1  O  1px      -0.353394
 MO|   11     1  O  1py       0.217954
 MO|   12     1  O  1pz       0.000000
 MO|   13     1  O  1px      -0.220398
 MO|   14     1  O  1d-2      0.000000
 MO|   15     1  O  1d-1     -0.000000
 MO|   16     1  O  1d0       0.000000
 MO|   17     1  O  1d+1      0.000000
 MO|   18     1  O  1d+2     -0.000000
 MO|   19     1  O  1d-2      0.000000
 MO|   20     1  O  1d-1      0.000000
 MO|   21     1  O  1d0       0.000000
 MO|   22     1  O  1d+1     -0.000000
 MO|   23     1  O  1d+2     -0.000000
 MO|   24     1  O  1f-3     -0.001350
 MO|   25     1  O  1f-2      0.000000
 MO|   26     1  O  1f-1      0.001023
 MO|   27     1  O  1f0       0.000000
 MO|   28     1  O  1f+1     -0.001034
 MO|   29     1  O  1f+2     -0.000000
 MO|   30     1  O  1f+3     -0.001305
 MO|   31     1  O  1s       -0.000000
 MO|   32     1  O  1py       0.012333
 MO|   33     1  O  1pz       0.000000
 MO|   34     1  O  1px      -0.012471
 MO|   35     1  O  1d-2      0.000000
 MO|   36     1  O  1d-1     -0.000001
 MO|   37     1  O  1d0       0.000000
 MO|   38     1  O  1d+1      0.000001
 MO|   39     1  O  1d+2     -0.000000
 MO|   40     1  O  1f-3     -0.001302
 MO|   41     1  O  1f-2      0.000000
 MO|   42     1  O  1f-1      0.000986
 MO|   43     1  O  1f0       0.000000
 MO|   44     1  O  1f+1     -0.000997
 MO|   45     1  O  1f+2      0.000000
 MO|   46     1  O  1f+3     -0.001259
 MO|
 MO| E(Fermi):           -0.660077 a.u.        -17.961607 eV


 MO| BETA EIGENVALUES, OCCUPATION NUMBERS, AND SPHERICAL EIGENVECTORS AFTER SCF STEP 5
 MO|
 MO|                             1            2            3
 MO|                        -20.344373    -1.064624    -0.312895
 MO|
 MO|                          1.000000     1.000000     1.000000
 MO|
 MO|    1     1  O  1s       -0.971904     0.003626     0.000000
 MO|    2     1  O  2s        0.005818    -0.561496     0.000000
 MO|    3     1  O  1s       -0.047532    -0.149745     0.000000
 MO|    4     1  O  1s       -0.005905    -0.395739     0.000000
 MO|    5     1  O  1py      -0.000000    -0.000000     0.240234
 MO|    6     1  O  1pz       0.000000     0.000004     0.000000
 MO|    7     1  O  1px      -0.000000    -0.000000    -0.242928
 MO|    8     1  O  1py       0.000000    -0.000000     0.304327
 MO|    9     1  O  1pz      -0.000000    -0.000008     0.000000
 MO|   10     1  O  1px       0.000000    -0.000000    -0.307739
 MO|   11     1  O  1py      -0.000000    -0.000000     0.278586
 MO|   12     1  O  1pz       0.000000     0.000026     0.000000
 MO|   13     1  O  1px      -0.000000    -0.000000    -0.281709
 MO|   14     1  O  1d-2      0.000272     0.002430     0.000000
 MO|   15     1  O  1d-1     -0.000000    -0.000000    -0.000000
 MO|   16     1  O  1d0       0.000157     0.001409     0.000000
 MO|   17     1  O  1d+1      0.000000     0.000000     0.000000
 MO|   18     1  O  1d+2     -0.000003    -0.000027    -0.000000
 MO|   19     1  O  1d-2      0.000069     0.004952     0.000000
 MO|   20     1  O  1d-1     -0.000000    -0.000000     0.000000
 MO|   21     1  O  1d0       0.000040     0.002828     0.000000
 MO|   22     1  O  1d+1     -0.000000     0.000000    -0.000000
 MO|   23     1  O  1d+2     -0.000001    -0.000055    -0.000000
 MO|   24     1  O  1f-3      0.000000    -0.000000     0.000023
 MO|   25     1  O  1f-2     -0.000000    -0.000000    -0.000000
 MO|   26     1  O  1f-1      0.000000    -0.000000    -0.000017
 MO|   27     1  O  1f0      -0.000000    -0.000000    -0.000000
 MO|   28     1  O  1f+1      0.000000    -0.000000     0.000017
 MO|   29     1  O  1f+2      0.000000     0.000000    -0.000000
 MO|   30     1  O  1f+3     -0.000000     0.000000     0.000022
 MO|   31     1  O  1s        0.001591    -0.020680    -0.000000
 MO|   32     1  O  1py       0.000000    -0.000000     0.072433
 MO|   33     1  O  1pz      -0.000000    -0.000014     0.000000
 MO|   34     1  O  1px       0.000000    -0.000000    -0.073245
 MO|   35     1  O  1d-2      0.000015     0.003534     0.000000
 MO|   36     1  O  1d-1      0.000000    -0.000000    -0.000002
 MO|   37     1  O  1d0       0.000009     0.002111     0.000000
 MO|   38     1  O  1d+1      0.000000     0.000000     0.000002
 MO|   39     1  O  1d+2     -0.000000    -0.000039    -0.000000
 MO|   40     1  O  1f-3      0.000000     0.000000     0.000051
 MO|   41     1  O  1f-2     -0.000000     0.000000    -0.000000
 MO|   42     1  O  1f-1      0.000000     0.000000    -0.000039
 MO|   43     1  O  1f0       0.000000    -0.000000    -0.000000
 MO|   44     1  O  1f+1      0.000000     0.000000     0.000040
 MO|   45     1  O  1f+2      0.000000    -0.000000     0.000000
 MO|   46     1  O  1f+3     -0.000000    -0.000000     0.000050
 MO|
 MO| E(Fermi):           -0.312895 a.u.         -8.514298 eV

     6 P_Mix/Diag. 0.10E+00    2.5     0.09165761       -74.1979305779 -5.43E-02

 MO| ALPHA EIGENVALUES, OCCUPATION NUMBERS, AND SPHERICAL EIGENVECTORS AFTER SCF STEP 6
 MO|
 MO|                             1            2            3            4
 MO|                        -20.683056    -1.414877    -0.707428    -0.707425
 MO|
 MO|                          1.000000     1.000000     1.000000     1.000000
 MO|
 MO|    1     1  O  1s       -0.974066    -0.006343     0.000016    -0.000000
 MO|    2     1  O  2s        0.001226    -0.612127     0.000033    -0.000000
 MO|    3     1  O  1s       -0.046222    -0.169970     0.000000    -0.000000
 MO|    4     1  O  1s       -0.004144    -0.342130    -0.000063     0.000000
 MO|    5     1  O  1py       0.000000     0.000000    -0.000000     0.282077
 MO|    6     1  O  1pz       0.000000    -0.000001     0.396720     0.000000
 MO|    7     1  O  1px       0.000000     0.000000    -0.000000     0.278950
 MO|    8     1  O  1py       0.000000     0.000000    -0.000000     0.363701
 MO|    9     1  O  1pz      -0.000000    -0.000009     0.511602     0.000000
 MO|   10     1  O  1px       0.000000     0.000000    -0.000000     0.359668
 MO|   11     1  O  1py      -0.000000    -0.000000    -0.000000     0.210630
 MO|   12     1  O  1pz       0.000000     0.000017     0.296055     0.000000
 MO|   13     1  O  1px      -0.000000    -0.000000    -0.000000     0.208295
 MO|   14     1  O  1d-2     -0.000554    -0.006985     0.000000    -0.000000
 MO|   15     1  O  1d-1      0.000000     0.000000    -0.000000    -0.000000
 MO|   16     1  O  1d0      -0.000320    -0.004029     0.000005     0.000000
 MO|   17     1  O  1d+1     -0.000000    -0.000000    -0.000000    -0.000000
 MO|   18     1  O  1d+2      0.000006     0.000078    -0.000000     0.000000
 MO|   19     1  O  1d-2      0.000182    -0.014083    -0.000000    -0.000000
 MO|   20     1  O  1d-1     -0.000000     0.000000    -0.000000     0.000000
 MO|   21     1  O  1d0       0.000105    -0.008158    -0.000022    -0.000000
 MO|   22     1  O  1d+1      0.000000    -0.000000    -0.000000     0.000000
 MO|   23     1  O  1d+2     -0.000002     0.000157     0.000000     0.000000
 MO|   24     1  O  1f-3     -0.000000    -0.000000    -0.000000     0.004103
 MO|   25     1  O  1f-2      0.000000    -0.000000     0.004819     0.000000
 MO|   26     1  O  1f-1     -0.000000     0.000000    -0.000000     0.001084
 MO|   27     1  O  1f0       0.000000     0.000000     0.003733     0.000000
 MO|   28     1  O  1f+1     -0.000000     0.000000    -0.000000     0.001072
 MO|   29     1  O  1f+2     -0.000000     0.000000    -0.000054    -0.000000
 MO|   30     1  O  1f+3     -0.000000     0.000000     0.000000    -0.004243
 MO|   31     1  O  1s        0.000987     0.001896     0.000042     0.000000
 MO|   32     1  O  1py       0.000000    -0.000000    -0.000000     0.005059
 MO|   33     1  O  1pz      -0.000000    -0.000011     0.007207     0.000000
 MO|   34     1  O  1px       0.000000    -0.000000    -0.000000     0.005003
 MO|   35     1  O  1d-2     -0.000074    -0.001019    -0.000001     0.000000
 MO|   36     1  O  1d-1      0.000000     0.000000     0.000000    -0.000001
 MO|   37     1  O  1d0      -0.000043    -0.000529     0.000076     0.000000
 MO|   38     1  O  1d+1     -0.000000    -0.000000     0.000000    -0.000001
 MO|   39     1  O  1d+2      0.000001     0.000011     0.000000     0.000000
 MO|   40     1  O  1f-3      0.000000    -0.000000    -0.000000     0.003746
 MO|   41     1  O  1f-2      0.000000     0.000000     0.004399     0.000000
 MO|   42     1  O  1f-1      0.000000     0.000000    -0.000000     0.000989
 MO|   43     1  O  1f0      -0.000000    -0.000001     0.003406     0.000000
 MO|   44     1  O  1f+1      0.000000     0.000000    -0.000000     0.000978
 MO|   45     1  O  1f+2     -0.000000    -0.000000    -0.000049    -0.000000
 MO|   46     1  O  1f+3     -0.000000     0.000000     0.000000    -0.003873
 MO|
 MO|                             5
 MO|                         -0.611271
 MO|
 MO|                          1.000000
 MO|
 MO|    1     1  O  1s       -0.000000
 MO|    2     1  O  2s       -0.000000
 MO|    3     1  O  1s        0.000000
 MO|    4     1  O  1s       -0.000000
 MO|    5     1  O  1py      -0.273982
 MO|    6     1  O  1pz      -0.000000
 MO|    7     1  O  1px       0.277054
 MO|    8     1  O  1py      -0.347594
 MO|    9     1  O  1pz      -0.000000
 MO|   10     1  O  1px       0.351491
 MO|   11     1  O  1py      -0.225623
 MO|   12     1  O  1pz      -0.000000
 MO|   13     1  O  1px       0.228153
 MO|   14     1  O  1d-2     -0.000000
 MO|   15     1  O  1d-1      0.000000
 MO|   16     1  O  1d0      -0.000000
 MO|   17     1  O  1d+1     -0.000000
 MO|   18     1  O  1d+2     -0.000000
 MO|   19     1  O  1d-2     -0.000000
 MO|   20     1  O  1d-1     -0.000000
 MO|   21     1  O  1d0      -0.000000
 MO|   22     1  O  1d+1      0.000000
 MO|   23     1  O  1d+2     -0.000000
 MO|   24     1  O  1f-3      0.004199
 MO|   25     1  O  1f-2     -0.000000
 MO|   26     1  O  1f-1     -0.003182
 MO|   27     1  O  1f0      -0.000000
 MO|   28     1  O  1f+1      0.003217
 MO|   29     1  O  1f+2      0.000000
 MO|   30     1  O  1f+3      0.004061
 MO|   31     1  O  1s        0.000000
 MO|   32     1  O  1py      -0.012881
 MO|   33     1  O  1pz      -0.000000
 MO|   34     1  O  1px       0.013026
 MO|   35     1  O  1d-2     -0.000000
 MO|   36     1  O  1d-1      0.000001
 MO|   37     1  O  1d0      -0.000000
 MO|   38     1  O  1d+1     -0.000001
 MO|   39     1  O  1d+2      0.000000
 MO|   40     1  O  1f-3      0.004199
 MO|   41     1  O  1f-2     -0.000000
 MO|   42     1  O  1f-1     -0.003181
 MO|   43     1  O  1f0      -0.000000
 MO|   44     1  O  1f+1      0.003216
 MO|   45     1  O  1f+2      0.000000
 MO|   46     1  O  1f+3      0.004061
 MO|
 MO| E(Fermi):           -0.611271 a.u.        -16.633530 eV


 MO| BETA EIGENVALUES, OCCUPATION NUMBERS, AND SPHERICAL EIGENVECTORS AFTER SCF STEP 6
 MO|
 MO|                             1            2            3
 MO|                        -20.621882    -1.069438    -0.515637
 MO|
 MO|                          1.000000     1.000000     1.000000
 MO|
 MO|    1     1  O  1s       -0.978057     0.004386     0.000000
 MO|    2     1  O  2s        0.000198    -0.554188     0.000000
 MO|    3     1  O  1s       -0.039862    -0.149244    -0.000000
 MO|    4     1  O  1s       -0.002872    -0.403306     0.000000
 MO|    5     1  O  1py       0.000000    -0.000000     0.255342
 MO|    6     1  O  1pz       0.000000     0.000006     0.000000
 MO|    7     1  O  1px       0.000000    -0.000000    -0.258205
 MO|    8     1  O  1py      -0.000000    -0.000000     0.324025
 MO|    9     1  O  1pz      -0.000000    -0.000007     0.000000
 MO|   10     1  O  1px      -0.000000    -0.000000    -0.327658
 MO|   11     1  O  1py       0.000000    -0.000000     0.263100
 MO|   12     1  O  1pz       0.000000     0.000032     0.000000
 MO|   13     1  O  1px       0.000000    -0.000000    -0.266050
 MO|   14     1  O  1d-2      0.000827     0.008179     0.000000
 MO|   15     1  O  1d-1     -0.000000    -0.000000    -0.000000
 MO|   16     1  O  1d0       0.000478     0.004730     0.000000
 MO|   17     1  O  1d+1      0.000000     0.000000     0.000000
 MO|   18     1  O  1d+2     -0.000009    -0.000091    -0.000000
 MO|   19     1  O  1d-2      0.000162     0.017481     0.000000
 MO|   20     1  O  1d-1     -0.000000    -0.000000    -0.000000
 MO|   21     1  O  1d0       0.000094     0.010059     0.000000
 MO|   22     1  O  1d+1      0.000000     0.000000     0.000000
 MO|   23     1  O  1d+2     -0.000002    -0.000195    -0.000000
 MO|   24     1  O  1f-3      0.000000     0.000000     0.000516
 MO|   25     1  O  1f-2     -0.000000    -0.000000    -0.000000
 MO|   26     1  O  1f-1      0.000000     0.000000    -0.000391
 MO|   27     1  O  1f0      -0.000000     0.000000    -0.000000
 MO|   28     1  O  1f+1     -0.000000     0.000000     0.000395
 MO|   29     1  O  1f+2      0.000000     0.000000     0.000000
 MO|   30     1  O  1f+3     -0.000000    -0.000000     0.000499
 MO|   31     1  O  1s        0.000666    -0.020376    -0.000000
 MO|   32     1  O  1py      -0.000000    -0.000000     0.033453
 MO|   33     1  O  1pz      -0.000000    -0.000016     0.000000
 MO|   34     1  O  1px      -0.000000    -0.000000    -0.033828
 MO|   35     1  O  1d-2      0.000039     0.009959     0.000000
 MO|   36     1  O  1d-1     -0.000000    -0.000000    -0.000002
 MO|   37     1  O  1d0       0.000023     0.005829     0.000000
 MO|   38     1  O  1d+1      0.000000     0.000000     0.000002
 MO|   39     1  O  1d+2     -0.000000    -0.000111    -0.000000
 MO|   40     1  O  1f-3      0.000000     0.000000     0.000653
 MO|   41     1  O  1f-2     -0.000000    -0.000000    -0.000000
 MO|   42     1  O  1f-1      0.000000     0.000000    -0.000495
 MO|   43     1  O  1f0       0.000000    -0.000000    -0.000000
 MO|   44     1  O  1f+1      0.000000     0.000000     0.000501
 MO|   45     1  O  1f+2      0.000000     0.000000    -0.000000
 MO|   46     1  O  1f+3     -0.000000    -0.000000     0.000632
 MO|
 MO| E(Fermi):           -0.515637 a.u.        -14.031191 eV

     7 DIIS/Diag.  0.74E-02    2.2     0.09449600       -74.2490448919 -5.11E-02

 MO| ALPHA EIGENVALUES, OCCUPATION NUMBERS, AND SPHERICAL EIGENVECTORS AFTER SCF STEP 7
 MO|
 MO|                             1            2            3            4
 MO|                        -20.627255    -1.414046    -0.716097    -0.716096
 MO|
 MO|                          1.000000     1.000000     1.000000     1.000000
 MO|
 MO|    1     1  O  1s        0.973341    -0.006749     0.000016    -0.000000
 MO|    2     1  O  2s       -0.001828    -0.614496     0.000033     0.000000
 MO|    3     1  O  1s        0.047137    -0.170565     0.000000     0.000000
 MO|    4     1  O  1s        0.004554    -0.339209    -0.000062     0.000000
 MO|    5     1  O  1py      -0.000000     0.000000    -0.000000     0.282688
 MO|    6     1  O  1pz      -0.000000    -0.000000     0.397578     0.000000
 MO|    7     1  O  1px      -0.000000     0.000000    -0.000000     0.279554
 MO|    8     1  O  1py       0.000000     0.000000    -0.000000     0.364389
 MO|    9     1  O  1pz       0.000000    -0.000009     0.512568     0.000000
 MO|   10     1  O  1px       0.000000     0.000000    -0.000000     0.360349
 MO|   11     1  O  1py      -0.000000     0.000000    -0.000000     0.209093
 MO|   12     1  O  1pz      -0.000000     0.000017     0.293896     0.000000
 MO|   13     1  O  1px      -0.000000     0.000000    -0.000000     0.206775
 MO|   14     1  O  1d-2      0.000566    -0.006889     0.000000    -0.000000
 MO|   15     1  O  1d-1     -0.000000     0.000000    -0.000000    -0.000000
 MO|   16     1  O  1d0       0.000327    -0.003973     0.000005     0.000000
 MO|   17     1  O  1d+1      0.000000    -0.000000    -0.000000    -0.000000
 MO|   18     1  O  1d+2     -0.000006     0.000077    -0.000000     0.000000
 MO|   19     1  O  1d-2     -0.000196    -0.013713    -0.000000    -0.000000
 MO|   20     1  O  1d-1      0.000000     0.000000    -0.000000     0.000000
 MO|   21     1  O  1d0      -0.000113    -0.007945    -0.000022    -0.000000
 MO|   22     1  O  1d+1     -0.000000    -0.000000    -0.000000     0.000000
 MO|   23     1  O  1d+2      0.000002     0.000153     0.000000     0.000000
 MO|   24     1  O  1f-3      0.000000     0.000000    -0.000000     0.004153
 MO|   25     1  O  1f-2     -0.000000    -0.000000     0.004877     0.000000
 MO|   26     1  O  1f-1     -0.000000     0.000000    -0.000000     0.001097
 MO|   27     1  O  1f0      -0.000000     0.000000     0.003778     0.000000
 MO|   28     1  O  1f+1      0.000000     0.000000    -0.000000     0.001085
 MO|   29     1  O  1f+2      0.000000     0.000000    -0.000054    -0.000000
 MO|   30     1  O  1f+3     -0.000000    -0.000000     0.000000    -0.004294
 MO|   31     1  O  1s       -0.001113     0.001982     0.000042     0.000000
 MO|   32     1  O  1py       0.000000    -0.000000    -0.000000     0.004995
 MO|   33     1  O  1pz       0.000000    -0.000010     0.007118     0.000000
 MO|   34     1  O  1px       0.000000    -0.000000    -0.000000     0.004940
 MO|   35     1  O  1d-2      0.000080    -0.001041    -0.000001     0.000000
 MO|   36     1  O  1d-1     -0.000000     0.000000     0.000000    -0.000001
 MO|   37     1  O  1d0       0.000046    -0.000542     0.000076     0.000000
 MO|   38     1  O  1d+1      0.000000    -0.000000     0.000000    -0.000001
 MO|   39     1  O  1d+2     -0.000001     0.000012     0.000000     0.000000
 MO|   40     1  O  1f-3     -0.000000    -0.000000    -0.000000     0.003742
 MO|   41     1  O  1f-2     -0.000000     0.000000     0.004394     0.000000
 MO|   42     1  O  1f-1     -0.000000     0.000000    -0.000000     0.000988
 MO|   43     1  O  1f0       0.000000    -0.000001     0.003402     0.000000
 MO|   44     1  O  1f+1     -0.000000     0.000000    -0.000000     0.000977
 MO|   45     1  O  1f+2      0.000000    -0.000000    -0.000049    -0.000000
 MO|   46     1  O  1f+3      0.000000     0.000000     0.000000    -0.003869
 MO|
 MO|                             5
 MO|                         -0.619459
 MO|
 MO|                          1.000000
 MO|
 MO|    1     1  O  1s       -0.000000
 MO|    2     1  O  2s       -0.000000
 MO|    3     1  O  1s       -0.000000
 MO|    4     1  O  1s       -0.000000
 MO|    5     1  O  1py      -0.275625
 MO|    6     1  O  1pz      -0.000000
 MO|    7     1  O  1px       0.278715
 MO|    8     1  O  1py      -0.349594
 MO|    9     1  O  1pz      -0.000000
 MO|   10     1  O  1px       0.353514
 MO|   11     1  O  1py      -0.221951
 MO|   12     1  O  1pz      -0.000000
 MO|   13     1  O  1px       0.224439
 MO|   14     1  O  1d-2     -0.000000
 MO|   15     1  O  1d-1      0.000000
 MO|   16     1  O  1d0      -0.000000
 MO|   17     1  O  1d+1     -0.000000
 MO|   18     1  O  1d+2     -0.000000
 MO|   19     1  O  1d-2     -0.000000
 MO|   20     1  O  1d-1     -0.000000
 MO|   21     1  O  1d0      -0.000000
 MO|   22     1  O  1d+1      0.000000
[...]
 MO|   46     1  O  1f+3      0.003994
 MO|
 MO| E(Fermi):           -0.611858 a.u.        -16.649514 eV


 MO| BETA EIGENVALUES, OCCUPATION NUMBERS, AND SPHERICAL EIGENVECTORS
 MO|
 MO|                             1            2            3
 MO|                        -20.632365    -1.077321    -0.521851
 MO|
 MO|                          1.000000     1.000000     1.000000
 MO|
 MO|    1     1  O  1s        0.977811    -0.004012    -0.000000
 MO|    2     1  O  2s       -0.000423     0.556828    -0.000000
 MO|    3     1  O  1s        0.040170     0.150692    -0.000000
 MO|    4     1  O  1s        0.002984     0.400307    -0.000000
 MO|    5     1  O  1py       0.000000     0.000000    -0.258199
 MO|    6     1  O  1pz      -0.000000    -0.000006    -0.000000
 MO|    7     1  O  1px       0.000000     0.000000     0.261095
 MO|    8     1  O  1py       0.000000     0.000000    -0.326719
 MO|    9     1  O  1pz       0.000000     0.000006    -0.000000
 MO|   10     1  O  1px       0.000000     0.000000     0.330383
 MO|   11     1  O  1py      -0.000000     0.000000    -0.258793
 MO|   12     1  O  1pz      -0.000000    -0.000032    -0.000000
 MO|   13     1  O  1px       0.000000     0.000000     0.261695
 MO|   14     1  O  1d-2     -0.000837    -0.008295    -0.000000
 MO|   15     1  O  1d-1      0.000000     0.000000     0.000000
 MO|   16     1  O  1d0      -0.000483    -0.004797    -0.000000
 MO|   17     1  O  1d+1     -0.000000    -0.000000    -0.000000
 MO|   18     1  O  1d+2      0.000009     0.000092     0.000000
 MO|   19     1  O  1d-2     -0.000156    -0.017518     0.000000
 MO|   20     1  O  1d-1      0.000000     0.000000     0.000000
 MO|   21     1  O  1d0      -0.000090    -0.010081    -0.000000
 MO|   22     1  O  1d+1     -0.000000    -0.000000    -0.000000
 MO|   23     1  O  1d+2      0.000002     0.000195     0.000000
 MO|   24     1  O  1f-3     -0.000000    -0.000000    -0.000587
 MO|   25     1  O  1f-2      0.000000     0.000000     0.000000
 MO|   26     1  O  1f-1     -0.000000     0.000000     0.000445
 MO|   27     1  O  1f0       0.000000    -0.000000     0.000000
 MO|   28     1  O  1f+1     -0.000000     0.000000    -0.000450
 MO|   29     1  O  1f+2     -0.000000    -0.000000     0.000000
 MO|   30     1  O  1f+3      0.000000     0.000000    -0.000568
 MO|   31     1  O  1s       -0.000703     0.019243     0.000000
 MO|   32     1  O  1py       0.000000     0.000000    -0.030279
 MO|   33     1  O  1pz       0.000000     0.000016    -0.000000
 MO|   34     1  O  1px       0.000000     0.000000     0.030618
 MO|   35     1  O  1d-2     -0.000039    -0.009323    -0.000000
 MO|   36     1  O  1d-1      0.000000     0.000000     0.000002
 MO|   37     1  O  1d0      -0.000023    -0.005461    -0.000000
 MO|   38     1  O  1d+1     -0.000000    -0.000000    -0.000002
 MO|   39     1  O  1d+2      0.000000     0.000104     0.000000
 MO|   40     1  O  1f-3     -0.000000    -0.000000    -0.000678
 MO|   41     1  O  1f-2      0.000000     0.000000     0.000000
 MO|   42     1  O  1f-1     -0.000000    -0.000000     0.000514
 MO|   43     1  O  1f0      -0.000000     0.000000     0.000000
 MO|   44     1  O  1f+1     -0.000000    -0.000000    -0.000520
 MO|   45     1  O  1f+2     -0.000000    -0.000000    -0.000000
 MO|   46     1  O  1f+3      0.000000     0.000000    -0.000656
 MO|
 MO| E(Fermi):           -0.521851 a.u.        -14.200301 eV


  Integrated absolute spin density  :                               1.8887345003
  Ideal and single determinant S**2 :                    2.000000       2.009199

 The sum of alpha and beta density is written in cube file format to the file:

 o-ELECTRON_DENSITY-1_0.cube

 The spin density is written in cube file format to the file:

 o-SPIN_DENSITY-1_0.cube


 LOWDIN POPULATION ANALYSIS

 #  Atom  Element  Kind  Atomic population (alpha,beta) Net charge  Spin moment
       1     O        1         5.000000     3.000000     0.000000     2.000000
 # Total charge and spin        5.000000     3.000000     0.000000     2.000000

  
  Eigenvalues of the occupied subspace spin            1
 ---------------------------------------------
     -20.71085736      -1.41958723      -0.71103451      -0.71103029
      -0.61185840
 Fermi Energy [eV] :  -16.649514
  
  Eigenvalues of the occupied subspace spin            2
 ---------------------------------------------
     -20.63236456      -1.07732143      -0.52185147
 Fermi Energy [eV] :  -14.200301
  
  Lowest Eigenvalues of the unoccupied subspace spin            1
 -----------------------------------------------------
 WARNING : did not converge in ot_eigensolver
 number of iterations          299  exceeded maximum
 current gradient / target gradient   1.2144606163386520E-005  /    1.0000000000000001E-005
       0.15313010      0.15315361      0.15555110
  
  Lowest Eigenvalues of the unoccupied subspace spin            2
 -----------------------------------------------------
 OT| Eigensolver reached convergence in 285 iterations
       0.06484287      0.06485789      0.16694679
  
 HOMO - LUMO gap [eV] :   20.816396
 HOMO - LUMO gap [eV] :   15.964765

 ENERGY| Total FORCE_EVAL ( QS ) energy [a.u.]:              -74.813034321456584

 -------------------------------------------------------------------------------
 -                                                                             -
 -                                DBCSR STATISTICS                             -
 -                                                                             -
 -------------------------------------------------------------------------------
 COUNTER                                    TOTAL       BLAS       SMM       ACC
 flops     5 x     3 x     5                 1200     100.0%      0.0%      0.0%
 flops     5 x     3 x    46                11040     100.0%      0.0%      0.0%
 flops    46 x     3 x     5                11040     100.0%      0.0%      0.0%
 flops     5 x     5 x    46                18400     100.0%      0.0%      0.0%
 flops     6 x     6 x    46                26496     100.0%      0.0%      0.0%
 flops     6 x     3 x     6                30888     100.0%      0.0%      0.0%
 flops     8 x     8 x    46                47104     100.0%      0.0%      0.0%
 flops     8 x     3 x     8                57600     100.0%      0.0%      0.0%
 flops    46 x    14 x    46               118496     100.0%      0.0%      0.0%
 flops     3 x     3 x     3               132084     100.0%      0.0%      0.0%
 flops    46 x     5 x    46               169280     100.0%      0.0%      0.0%
 flops    46 x    46 x     3               203136     100.0%      0.0%      0.0%
 flops     6 x     3 x    46               236808     100.0%      0.0%      0.0%
 flops    46 x     3 x     6               236808     100.0%      0.0%      0.0%
 flops    46 x    32 x    46               270848     100.0%      0.0%      0.0%
 flops     8 x     3 x    46               331200     100.0%      0.0%      0.0%
 flops    46 x     3 x     8               331200     100.0%      0.0%      0.0%
 flops    46 x    46 x     5               338560     100.0%      0.0%      0.0%
 flops     3 x     3 x    46               955512     100.0%      0.0%      0.0%
 flops    46 x     3 x     3              1458936     100.0%      0.0%      0.0%
 flops    46 x     3 x    46             15171720     100.0%      0.0%      0.0%
 flops inhomo. stacks                           0       0.0%      0.0%      0.0%
 flops total                        20.158356E+06     100.0%      0.0%      0.0%
 flops max/rank                     20.158356E+06     100.0%      0.0%      0.0%
 matmuls inhomo. stacks                         0       0.0%      0.0%      0.0%
 matmuls total                               7528     100.0%      0.0%      0.0%
 number of processed stacks                  7528     100.0%      0.0%      0.0%
 average stack size                                     1.0       0.0       0.0
 marketing flops                    20.184852E+06
 -------------------------------------------------------------------------------
 # multiplications                           7558
 max memory usage/rank             906.395648E+06
 # max total images/rank                        1
 # max 3D layers                                1
 # MPI messages exchanged                       0
 -------------------------------------------------------------------------------

 -------------------------------------------------------------------------------
 -                                                                             -
 -                                DBM STATISTICS                               -
 -                                                                             -
 -------------------------------------------------------------------------------
    M  x    N  x    K                                          COUNT     PERCENT
 -------------------------------------------------------------------------------

 -------------------------------------------------------------------------------
 -                                                                             -
 -                                GRID STATISTICS                              -
 -                                                                             -
 -------------------------------------------------------------------------------
 LP    KERNEL             BACKEND                              COUNT     PERCENT
 2     collocate ortho    REF                                   1402      12.21%
 3     collocate ortho    REF                                   1388      12.09%
 2     integrate ortho    REF                                   1280      11.15%
 3     integrate ortho    REF                                   1280      11.15%
 1     collocate ortho    REF                                   1172      10.21%
 1     integrate ortho    REF                                   1024       8.92%
 4     collocate ortho    REF                                    850       7.40%
 4     integrate ortho    REF                                    800       6.97%
 0     collocate ortho    REF                                    684       5.96%
 0     integrate ortho    REF                                    512       4.46%
 5     collocate ortho    REF                                    408       3.55%
 5     integrate ortho    REF                                    384       3.34%
 6     collocate ortho    REF                                    136       1.18%
 6     integrate ortho    REF                                    128       1.11%
 2     collocate general  REF                                     16       0.14%
 2     integrate general  REF                                     16       0.14%
 -------------------------------------------------------------------------------

 MEMORY| Estimated peak process memory [MiB]                                 865

 -------------------------------------------------------------------------------
 -                                                                             -
 -                           R E F E R E N C E S                               -
 -                                                                             -
 -------------------------------------------------------------------------------
 
 CP2K version 2023.1 (Development Version), the CP2K developers group (2023).
 CP2K is freely available from https://www.cp2k.org/ .

 Kuehne,Thomas D.; Iannuzzi,Marcella; Del Ben,Mauro;
 Rybkin,Vladimir V.; Seewald,Patrick; Stein,Frederick; Laino,Teodoro;
 Khaliullin,Rustam Z.; Schuett,Ole; Schiffmann,Florian; Golze,Dorothea;
 Wilhelm,Jan; Chulkov,Sergey; Bani-Hashemian,Mohammad Hossein;
 Weber,Valery; Borstnik,Urban; Taillefumier,Mathieu;
 Jakobovits,Alice Shoshana; Lazzaro,Alfio; Pabst,Hans; Mueller,Tiziano;
 Schade,Robert; Guidon,Manuel; Andermatt,Samuel; Holmberg,Nico;
 Schenter,Gregory K.; Hehn,Anna; Bussy,Augustin; Belleflamme,Fabian;
 Tabacchi,Gloria; Gloess,Andreas; Lass,Michael; Bethune,Iain;
 Mundy,Christopher J.; Plessl,Christian; Watkins,Matt;
 VandeVondele,Joost; Krack,Matthias; Hutter,Juerg. 
 The Journal of Chemical Physics, 152 (19), (2020). 
 CP2K: An electronic structure and molecular dynamics software package -
 Quickstep: Efficient and accurate electronic structure calculations.
 https://doi.org/10.1063/5.0007045

 Schuett, Ole; Messmer, Peter; Hutter, Juerg; VandeVondele, Joost. 
 Electronic Structure Calculations on Graphics Processing Units, John
 Wiley & Sons, Ltd, 173-190 (2016). 
 GPU-Accelerated Sparse Matrix-Matrix Multiplication for
 Linear Scaling Density Functional Theory.
 https://doi.org/10.1002/9781118670712.ch8

 Borstnik, U; VandeVondele, J; Weber, V; Hutter, J. 
 PARALLEL COMPUTING, 40 (5-6), 47-58 (2014). 
 Sparse matrix multiplication: The distributed block-compressed sparse
 row library.
 https://doi.org/10.1016/j.parco.2014.03.012

 Hutter, J; Iannuzzi, M; Schiffmann, F; VandeVondele, J. 
 WIREs Comput Mol Sci., 4 (1), 15-25 (2014). 
 CP2K: atomistic simulations of condensed matter systems.
 https://doi.org/10.1002/wcms.1159

 Guidon, M; Hutter, J; VandeVondele, J. 
 JOURNAL OF CHEMICAL THEORY AND COMPUTATION, 5 (11), 3010-3021 (2009). 
 Robust Periodic Hartree-Fock Exchange for Large-Scale Simulations Using
 Gaussian Basis Sets.
 https://doi.org/10.1021/ct900494g

 Guidon, M; Schiffmann, F; Hutter, J; VandeVondele, J. 
 JOURNAL OF CHEMICAL PHYSICS, 128 (21), 214104 (2008). 
 Ab initio molecular dynamics using hybrid density functionals.
 https://doi.org/10.1063/1.2931945

 Genovese, L; Deutsch, T; Goedecker, S. 
 JOURNAL OF CHEMICAL PHYSICS, 127 (5), 054704 (2007). 
 Efficient and accurate three-dimensional Poisson solver for surface
 problems.
 https://doi.org/10.1063/1.2754685

 Genovese, L; Deutsch, T; Neelov, A; Goedecker, S; Beylkin, G. 
 JOURNAL OF CHEMICAL PHYSICS, 125 (7), 074105 (2006). 
 Efficient solution of Poisson's equation with free boundary conditions.
 https://doi.org/10.1063/1.2335442

 Frigo, M; Johnson, SG. 
 PROCEEDINGS OF THE IEEE, 93 (2), 216-231 (2005). 
 The design and implementation of FFTW3.
 https://doi.org/10.1109/JPROC.2004.840301

 VandeVondele, J; Hutter, J. 
 JOURNAL OF CHEMICAL PHYSICS, 118 (10), 4365-4369 (2003). 
 An efficient orbital transformation method for electronic structure
 calculations.
 https://doi.org/10.1063/1.1543154

 Lippert, G; Hutter, J; Parrinello, M. 
 THEORETICAL CHEMISTRY ACCOUNTS, 103 (2), 124-140 (1999). 
 The Gaussian and augmented-plane-wave density functional method for ab
 initio molecular dynamics simulations.
 https://doi.org/10.1007/s002140050523

 Krack, M; Parrinello, M. 
 PHYSICAL CHEMISTRY CHEMICAL PHYSICS, 2 (10), 2105-2112 (2000). 
 All-electron ab-initio molecular dynamics.
 https://doi.org/10.1039/b001167n


 -------------------------------------------------------------------------------
 -                                                                             -
 -                                T I M I N G                                  -
 -                                                                             -
 -------------------------------------------------------------------------------
 SUBROUTINE                       CALLS  ASD         SELF TIME        TOTAL TIME
                                MAXIMUM       AVERAGE  MAXIMUM  AVERAGE  MAXIMUM
 CP2K                                 1  1.0    0.287    0.287   55.045   55.045
 qs_energies                          1  2.0    0.033    0.033   52.940   52.940
 scf_env_do_scf                       1  3.0    0.004    0.004   40.790   40.790
 scf_env_do_scf_inner_loop           16  4.0    0.020    0.020   40.776   40.776
 qs_ks_update_qs_env                 16  5.0    0.000    0.000   29.526   29.526
 rebuild_ks_matrix                   16  6.0    0.001    0.001   29.523   29.523
 qs_ks_build_kohn_sham_matrix        16  7.0    0.073    0.073   29.522   29.522
 pw_transfer                        448  8.8    0.072    0.072   28.303   28.303
 fft_wrap_pw1pw2                    432  9.7    0.011    0.011   28.167   28.167
 fft_wrap_pw1pw2_200                192 10.5    3.379    3.379   25.762   25.762
 pw_poisson_solve                    16  8.0    0.919    0.919   14.971   14.971
 qs_rho_update_rho_low               17  5.0    0.005    0.005   11.909   11.909
 calculate_rho_elec                  34  6.0    0.477    0.477   11.892   11.892
 fft3d_s                            433 11.7   11.062   11.062   11.093   11.093
 scf_post_calculation_gpw             1  3.0    0.010    0.010   10.943   10.943
 density_rs2pw                       34  7.0    0.005    0.005   10.903   10.903
 pw_gather_s                        256 11.1    8.580    8.580    8.580    8.580
 ps_wavelet_solve                    16  9.0    6.709    6.709    6.919    6.919
 sum_up_and_integrate                16  8.0    0.007    0.007    6.275    6.275
 integrate_v_rspace                  32  9.0    0.008    0.008    6.269    6.269
 potential_pw2rs                     32 10.0    0.017    0.017    5.956    5.956
 pw_scatter_s                       176 12.6    5.014    5.014    5.014    5.014
 qs_scf_post_occ_cubes                2  4.0    0.084    0.084    4.378    4.378
 calculate_wavefunction              14  5.0    0.015    0.015    4.231    4.231
 pw_to_cube                          16  5.1    3.673    3.673    3.707    3.707
 qs_scf_post_unocc_cubes              2  4.0    0.064    0.064    3.226    3.226
 prepare_gapw_den                    16  8.0    0.005    0.005    2.979    2.979
 put_rho0_on_grid                    16  9.0    0.227    0.227    2.763    2.763
 make_lumo_gpw                        1  4.0    0.003    0.003    2.755    2.755
 ot_eigensolver                       2  5.0    0.012    0.012    2.751    2.751
 hfx_ks_matrix                       16  8.0    0.017    0.017    2.622    2.622
 integrate_four_center               16  9.0    0.054    0.054    2.588    2.588
 dbcsr_multiply_generic            7558  7.8    0.168    0.168    2.373    2.373
 fft_wrap_pw1pw2_70                  80 10.8    0.081    0.081    1.998    1.998
 qs_init_subsys                       1  2.0    0.108    0.108    1.500    1.500
 qs_env_setup                         1  3.0    0.015    0.015    1.285    1.285
 ot_mini                            584  6.0    0.006    0.006    1.273    1.273
 pw_poisson_rebuild                  16  9.0    0.001    0.001    1.273    1.273
 ps_wavelet_create                    1 10.0    0.003    0.003    1.272    1.272
 RS_z_slice_distribution              1 11.0    1.269    1.269    1.269    1.269
 qs_env_rebuild_pw_env                2  3.5    0.002    0.002    1.261    1.261
 pw_env_rebuild                       1  5.0    0.018    0.018    1.259    1.259
 qs_ot_get_derivative               293  7.0    0.001    0.001    1.238    1.238
 pw_grid_setup                        4  6.0    0.009    0.009    1.232    1.232
 pw_grid_setup_internal               4  7.0    0.032    0.032    1.223    1.223
 integrate_four_center_main          16 10.0    0.003    0.003    1.123    1.123
 integrate_four_center_bin           16 11.0    1.120    1.120    1.120    1.120
 -------------------------------------------------------------------------------

 The number of warnings for this run is : 1
 
 -------------------------------------------------------------------------------
  **** **** ******  **  PROGRAM ENDED AT                 2023-03-29 08:51:29.292
 ***** ** ***  *** **   PROGRAM RAN ON                                eu-a2p-494
 **    ****   ******    PROGRAM RAN BY                                 jbachmann
 ***** **    ** ** **   PROGRAM PROCESS ID                                 25466
  **** **  *******  **  PROGRAM STOPPED IN /cluster/home/jbachmann/Molecular-and
                                           -Materials-Modelling-FS2023/exercise6
                                           /triplet_atom
