     180
 i =        1, E =    -21710.7139948145
 Pt         0.0000000000        1.6003333000        0.0000000000
 Pt         2.7718585800        1.6003333000        0.0000000000
 Pt         5.5437171600        1.6003333000        0.0000000000
 Pt         8.3155757500        1.6003333000        0.0000000000
 Pt        11.0874343300        1.6003333000        0.0000000000
 Pt        13.8592929100        1.6003333000        0.0000000000
 Pt         1.3859292900        4.0008332500        0.0000000000
 Pt         4.1577878700        4.0008332500        0.0000000000
 Pt         6.9296464600        4.0008332500        0.0000000000
 Pt         9.7015050400        4.0008332500        0.0000000000
 Pt        12.4733636200        4.0008332500        0.0000000000
 Pt        15.2452222000        4.0008332500        0.0000000000
 Pt         2.7718585800        6.4013331900        0.0000000000
 Pt         5.5437171600        6.4013331900        0.0000000000
 Pt         8.3155757500        6.4013331900        0.0000000000
 Pt        11.0874343300        6.4013331900        0.0000000000
 Pt        13.8592929100        6.4013331900        0.0000000000
 Pt        16.6311514900        6.4013331900        0.0000000000
 Pt         4.1577878700        8.8018331400        0.0000000000
 Pt         6.9296464600        8.8018331400        0.0000000000
 Pt         9.7015050400        8.8018331400        0.0000000000
 Pt        12.4733636200        8.8018331400        0.0000000000
 Pt        15.2452222000        8.8018331400        0.0000000000
 Pt        18.0170807800        8.8018331400        0.0000000000
 Pt         5.5437171600       11.2023330900        0.0000000000
 Pt         8.3155757500       11.2023330900        0.0000000000
 Pt        11.0874343300       11.2023330900        0.0000000000
 Pt        13.8592929100       11.2023330900        0.0000000000
 Pt        16.6311514900       11.2023330900        0.0000000000
 Pt        19.4030100800       11.2023330900        0.0000000000
 Pt         6.9296464600       13.6028330400        0.0000000000
 Pt         9.7015050400       13.6028330400        0.0000000000
 Pt        12.4733636200       13.6028330400        0.0000000000
 Pt        15.2452222000       13.6028330400        0.0000000000
 Pt        18.0170807800       13.6028330400        0.0000000000
 Pt        20.7889393700       13.6028330400        0.0000000000
 Pt         0.0000000000        0.0000000000        2.2632130600
 Pt         2.7718585800        0.0000000000        2.2632130600
 Pt         5.5437171600        0.0000000000        2.2632130600
 Pt         8.3155757500        0.0000000000        2.2632130600
 Pt        11.0874343300        0.0000000000        2.2632130600
 Pt        13.8592929100        0.0000000000        2.2632130600
 Pt         1.3859292900        2.4004999500        2.2632130600
 Pt         4.1577878700        2.4004999500        2.2632130600
 Pt         6.9296464600        2.4004999500        2.2632130600
 Pt         9.7015050400        2.4004999500        2.2632130600
 Pt        12.4733636200        2.4004999500        2.2632130600
 Pt        15.2452222000        2.4004999500        2.2632130600
 Pt         2.7718585800        4.8009999000        2.2632130600
 Pt         5.5437171600        4.8009999000        2.2632130600
 Pt         8.3155757500        4.8009999000        2.2632130600
 Pt        11.0874343300        4.8009999000        2.2632130600
 Pt        13.8592929100        4.8009999000        2.2632130600
 Pt        16.6311514900        4.8009999000        2.2632130600
 Pt         4.1577878700        7.2014998400        2.2632130600
 Pt         6.9296464600        7.2014998400        2.2632130600
 Pt         9.7015050400        7.2014998400        2.2632130600
 Pt        12.4733636200        7.2014998400        2.2632130600
 Pt        15.2452222000        7.2014998400        2.2632130600
 Pt        18.0170807800        7.2014998400        2.2632130600
 Pt         5.5437171600        9.6019997900        2.2632130600
 Pt         8.3155757500        9.6019997900        2.2632130600
 Pt        11.0874343300        9.6019997900        2.2632130600
 Pt        13.8592929100        9.6019997900        2.2632130600
 Pt        16.6311514900        9.6019997900        2.2632130600
 Pt        19.4030100800        9.6019997900        2.2632130600
 Pt         6.9296464600       12.0024997400        2.2632130600
 Pt         9.7015050400       12.0024997400        2.2632130600
 Pt        12.4733636200       12.0024997400        2.2632130600
 Pt        15.2452222000       12.0024997400        2.2632130600
 Pt        18.0170807800       12.0024997400        2.2632130600
 Pt        20.7889393700       12.0024997400        2.2632130600
 Pt         1.3859292900        0.8001666500        4.5264261100
 Pt         4.1577878700        0.8001666500        4.5264261100
 Pt         6.9296464600        0.8001666500        4.5264261100
 Pt         9.7015050400        0.8001666500        4.5264261100
 Pt        12.4733636200        0.8001666500        4.5264261100
 Pt        15.2452222000        0.8001666500        4.5264261100
 Pt         2.7718585800        3.2006666000        4.5264261100
 Pt         5.5437171600        3.2006666000        4.5264261100
 Pt         8.3155757500        3.2006666000        4.5264261100
 Pt        11.0874343300        3.2006666000        4.5264261100
 Pt        13.8592929100        3.2006666000        4.5264261100
 Pt        16.6311514900        3.2006666000        4.5264261100
 Pt         4.1577878700        5.6011665500        4.5264261100
 Pt         6.9296464600        5.6011665500        4.5264261100
 Pt         9.7015050400        5.6011665500        4.5264261100
 Pt        12.4733636200        5.6011665500        4.5264261100
 Pt        15.2452222000        5.6011665500        4.5264261100
 Pt        18.0170807800        5.6011665500        4.5264261100
 Pt         5.5437171600        8.0016664900        4.5264261100
 Pt         8.3155757500        8.0016664900        4.5264261100
 Pt        11.0874343300        8.0016664900        4.5264261100
 Pt        13.8592929100        8.0016664900        4.5264261100
 Pt        16.6311514900        8.0016664900        4.5264261100
 Pt        19.4030100800        8.0016664900        4.5264261100
 Pt         6.9296464600       10.4021664400        4.5264261100
 Pt         9.7015050400       10.4021664400        4.5264261100
 Pt        12.4733636200       10.4021664400        4.5264261100
 Pt        15.2452222000       10.4021664400        4.5264261100
 Pt        18.0170807800       10.4021664400        4.5264261100
 Pt        20.7889393700       10.4021664400        4.5264261100
 Pt         8.3155757500       12.8026663900        4.5264261100
 Pt        11.0874343300       12.8026663900        4.5264261100
 Pt        13.8592929100       12.8026663900        4.5264261100
 Pt        16.6311514900       12.8026663900        4.5264261100
 Pt        19.4030100800       12.8026663900        4.5264261100
 Pt        22.1748686600       12.8026663900        4.5264261100
 Pt         0.0000000000        1.6003333000        6.7896391700
 Pt         2.7718585800        1.6003333000        6.7896391700
 Pt         5.5437171600        1.6003333000        6.7896391700
 Pt         8.3155757500        1.6003333000        6.7896391700
 Pt        11.0874343300        1.6003333000        6.7896391700
 Pt        13.8592929100        1.6003333000        6.7896391700
 Pt         1.3859292900        4.0008332500        6.7896391700
 Pt         4.1577878700        4.0008332500        6.7896391700
 Pt         6.9296464600        4.0008332500        6.7896391700
 Pt         9.7015050400        4.0008332500        6.7896391700
 Pt        12.4733636200        4.0008332500        6.7896391700
 Pt        15.2452222000        4.0008332500        6.7896391700
 Pt         2.7718585800        6.4013331900        6.7896391700
 Pt         5.5437171600        6.4013331900        6.7896391700
 Pt         8.3155757500        6.4013331900        6.7896391700
 Pt        11.0874343300        6.4013331900        6.7896391700
 Pt        13.8592929100        6.4013331900        6.7896391700
 Pt        16.6311514900        6.4013331900        6.7896391700
 Pt         4.1577878700        8.8018331400        6.7896391700
 Pt         6.9296464600        8.8018331400        6.7896391700
 Pt         9.7015050400        8.8018331400        6.7896391700
 Pt        12.4733636200        8.8018331400        6.7896391700
 Pt        15.2452222000        8.8018331400        6.7896391700
 Pt        18.0170807800        8.8018331400        6.7896391700
 Pt         5.5437171600       11.2023330900        6.7896391700
 Pt         8.3155757500       11.2023330900        6.7896391700
 Pt        11.0874343300       11.2023330900        6.7896391700
 Pt        13.8592929100       11.2023330900        6.7896391700
 Pt        16.6311514900       11.2023330900        6.7896391700
 Pt        19.4030100800       11.2023330900        6.7896391700
 Pt         6.9296464600       13.6028330400        6.7896391700
 Pt         9.7015050400       13.6028330400        6.7896391700
 Pt        12.4733636200       13.6028330400        6.7896391700
 Pt        15.2452222000       13.6028330400        6.7896391700
 Pt        18.0170807800       13.6028330400        6.7896391700
 Pt        20.7889393700       13.6028330400        6.7896391700
 Pt         0.0004338211        0.0012242950        9.1057699409
 Pt         2.7748570205        0.0002393511        9.0994807825
 Pt         5.5501133832        0.0016438976        9.0914042518
 Pt         8.3158238315       -0.0008724083        9.0871961361
 Pt        11.0806945350        0.0001515888        9.0916329295
 Pt        13.8568584866        0.0008121184        9.0983090826
 Pt         1.3887421378        2.4045883097        9.0988874485
 Pt         4.1623684125        2.4036289843        9.0942051318
 Pt         6.9303868196        2.3970099342        9.0926004204
 Pt         9.7011204576        2.3980341528        9.0912418931
 Pt        12.4690444229        2.4038181024        9.0947415152
 Pt        15.2441404492        2.4035987095        9.0982809079
 Pt         2.7770168755        4.8061903739        9.0901507352
 Pt         5.5405548898        4.8028185103        9.0918794006
 Pt         8.3137681299        4.8004325103        9.0929982205
 Pt        11.0903213834        4.8024575064        9.0903557302
 Pt        13.8557172589        4.8072193675        9.0920186441
 Pt        16.6303622251        4.8056466831        9.0961433689
 Pt         4.1566828299        7.2005445925        9.0880779284
 Pt         6.9264149201        7.2025341356        9.0929941800
 Pt         9.7051546709        7.2045699843        9.0907432899
 Pt        12.4734376425        7.2011412629        9.0880410778
 Pt        15.2427760052        7.1999761754        9.0926256775
 Pt        18.0198805733        7.2018555030        9.0915514841
 Pt         5.5401438057        9.5964687836        9.0927700286
 Pt         8.3163173331        9.5971032532        9.0936995288
 Pt        11.0903901465        9.5962294736        9.0910271142
 Pt        13.8572580362        9.5996298945        9.0924827571
 Pt        16.6307648929        9.6024490570        9.0915172932
 Pt        19.4049194360        9.6002583423        9.0918049804
 Pt         6.9291594199       11.9982392547        9.0973844088
 Pt         9.7025843503       12.0009588280        9.0987104806
 Pt        12.4769998386       11.9983980613        9.0955178589
 Pt        15.2471979832       12.0045378131        9.0932133552
 Pt        18.0163878171       12.0057777409        9.0905929260
 Pt        20.7820005939       11.9991048761        9.0950803803
     180
 i =        2, E =    -21710.7207512608
 Pt         0.0000000000        1.6003333000        0.0000000000
 Pt         2.7718585800        1.6003333000        0.0000000000
 Pt         5.5437171600        1.6003333000        0.0000000000
 Pt         8.3155757500        1.6003333000        0.0000000000
 Pt        11.0874343300        1.6003333000        0.0000000000
 Pt        13.8592929100        1.6003333000        0.0000000000
 Pt         1.3859292900        4.0008332500        0.0000000000
 Pt         4.1577878700        4.0008332500        0.0000000000
 Pt         6.9296464600        4.0008332500        0.0000000000
 Pt         9.7015050400        4.0008332500        0.0000000000
 Pt        12.4733636200        4.0008332500        0.0000000000
 Pt        15.2452222000        4.0008332500        0.0000000000
 Pt         2.7718585800        6.4013331900        0.0000000000
 Pt         5.5437171600        6.4013331900        0.0000000000
 Pt         8.3155757500        6.4013331900        0.0000000000
 Pt        11.0874343300        6.4013331900        0.0000000000
 Pt        13.8592929100        6.4013331900        0.0000000000
 Pt        16.6311514900        6.4013331900        0.0000000000
 Pt         4.1577878700        8.8018331400        0.0000000000
 Pt         6.9296464600        8.8018331400        0.0000000000
 Pt         9.7015050400        8.8018331400        0.0000000000
 Pt        12.4733636200        8.8018331400        0.0000000000
 Pt        15.2452222000        8.8018331400        0.0000000000
 Pt        18.0170807800        8.8018331400        0.0000000000
 Pt         5.5437171600       11.2023330900        0.0000000000
 Pt         8.3155757500       11.2023330900        0.0000000000
 Pt        11.0874343300       11.2023330900        0.0000000000
 Pt        13.8592929100       11.2023330900        0.0000000000
 Pt        16.6311514900       11.2023330900        0.0000000000
 Pt        19.4030100800       11.2023330900        0.0000000000
 Pt         6.9296464600       13.6028330400        0.0000000000
 Pt         9.7015050400       13.6028330400        0.0000000000
 Pt        12.4733636200       13.6028330400        0.0000000000
 Pt        15.2452222000       13.6028330400        0.0000000000
 Pt        18.0170807800       13.6028330400        0.0000000000
 Pt        20.7889393700       13.6028330400        0.0000000000
 Pt         0.0000000000        0.0000000000        2.2632130600
 Pt         2.7718585800        0.0000000000        2.2632130600
 Pt         5.5437171600        0.0000000000        2.2632130600
 Pt         8.3155757500        0.0000000000        2.2632130600
 Pt        11.0874343300        0.0000000000        2.2632130600
 Pt        13.8592929100        0.0000000000        2.2632130600
 Pt         1.3859292900        2.4004999500        2.2632130600
 Pt         4.1577878700        2.4004999500        2.2632130600
 Pt         6.9296464600        2.4004999500        2.2632130600
 Pt         9.7015050400        2.4004999500        2.2632130600
 Pt        12.4733636200        2.4004999500        2.2632130600
 Pt        15.2452222000        2.4004999500        2.2632130600
 Pt         2.7718585800        4.8009999000        2.2632130600
 Pt         5.5437171600        4.8009999000        2.2632130600
 Pt         8.3155757500        4.8009999000        2.2632130600
 Pt        11.0874343300        4.8009999000        2.2632130600
 Pt        13.8592929100        4.8009999000        2.2632130600
 Pt        16.6311514900        4.8009999000        2.2632130600
 Pt         4.1577878700        7.2014998400        2.2632130600
 Pt         6.9296464600        7.2014998400        2.2632130600
 Pt         9.7015050400        7.2014998400        2.2632130600
 Pt        12.4733636200        7.2014998400        2.2632130600
 Pt        15.2452222000        7.2014998400        2.2632130600
 Pt        18.0170807800        7.2014998400        2.2632130600
 Pt         5.5437171600        9.6019997900        2.2632130600
 Pt         8.3155757500        9.6019997900        2.2632130600
 Pt        11.0874343300        9.6019997900        2.2632130600
 Pt        13.8592929100        9.6019997900        2.2632130600
 Pt        16.6311514900        9.6019997900        2.2632130600
 Pt        19.4030100800        9.6019997900        2.2632130600
 Pt         6.9296464600       12.0024997400        2.2632130600
 Pt         9.7015050400       12.0024997400        2.2632130600
 Pt        12.4733636200       12.0024997400        2.2632130600
 Pt        15.2452222000       12.0024997400        2.2632130600
 Pt        18.0170807800       12.0024997400        2.2632130600
 Pt        20.7889393700       12.0024997400        2.2632130600
 Pt         1.3859292900        0.8001666500        4.5264261100
 Pt         4.1577878700        0.8001666500        4.5264261100
 Pt         6.9296464600        0.8001666500        4.5264261100
 Pt         9.7015050400        0.8001666500        4.5264261100
 Pt        12.4733636200        0.8001666500        4.5264261100
 Pt        15.2452222000        0.8001666500        4.5264261100
 Pt         2.7718585800        3.2006666000        4.5264261100
 Pt         5.5437171600        3.2006666000        4.5264261100
 Pt         8.3155757500        3.2006666000        4.5264261100
 Pt        11.0874343300        3.2006666000        4.5264261100
 Pt        13.8592929100        3.2006666000        4.5264261100
 Pt        16.6311514900        3.2006666000        4.5264261100
 Pt         4.1577878700        5.6011665500        4.5264261100
 Pt         6.9296464600        5.6011665500        4.5264261100
 Pt         9.7015050400        5.6011665500        4.5264261100
 Pt        12.4733636200        5.6011665500        4.5264261100
 Pt        15.2452222000        5.6011665500        4.5264261100
 Pt        18.0170807800        5.6011665500        4.5264261100
 Pt         5.5437171600        8.0016664900        4.5264261100
 Pt         8.3155757500        8.0016664900        4.5264261100
 Pt        11.0874343300        8.0016664900        4.5264261100
 Pt        13.8592929100        8.0016664900        4.5264261100
 Pt        16.6311514900        8.0016664900        4.5264261100
 Pt        19.4030100800        8.0016664900        4.5264261100
 Pt         6.9296464600       10.4021664400        4.5264261100
 Pt         9.7015050400       10.4021664400        4.5264261100
 Pt        12.4733636200       10.4021664400        4.5264261100
 Pt        15.2452222000       10.4021664400        4.5264261100
 Pt        18.0170807800       10.4021664400        4.5264261100
 Pt        20.7889393700       10.4021664400        4.5264261100
 Pt         8.3155757500       12.8026663900        4.5264261100
 Pt        11.0874343300       12.8026663900        4.5264261100
 Pt        13.8592929100       12.8026663900        4.5264261100
 Pt        16.6311514900       12.8026663900        4.5264261100
 Pt        19.4030100800       12.8026663900        4.5264261100
 Pt        22.1748686600       12.8026663900        4.5264261100
 Pt         0.0000000000        1.6003333000        6.7896391700
 Pt         2.7718585800        1.6003333000        6.7896391700
 Pt         5.5437171600        1.6003333000        6.7896391700
 Pt         8.3155757500        1.6003333000        6.7896391700
 Pt        11.0874343300        1.6003333000        6.7896391700
 Pt        13.8592929100        1.6003333000        6.7896391700
 Pt         1.3859292900        4.0008332500        6.7896391700
 Pt         4.1577878700        4.0008332500        6.7896391700
 Pt         6.9296464600        4.0008332500        6.7896391700
 Pt         9.7015050400        4.0008332500        6.7896391700
 Pt        12.4733636200        4.0008332500        6.7896391700
 Pt        15.2452222000        4.0008332500        6.7896391700
 Pt         2.7718585800        6.4013331900        6.7896391700
 Pt         5.5437171600        6.4013331900        6.7896391700
 Pt         8.3155757500        6.4013331900        6.7896391700
 Pt        11.0874343300        6.4013331900        6.7896391700
 Pt        13.8592929100        6.4013331900        6.7896391700
 Pt        16.6311514900        6.4013331900        6.7896391700
 Pt         4.1577878700        8.8018331400        6.7896391700
 Pt         6.9296464600        8.8018331400        6.7896391700
 Pt         9.7015050400        8.8018331400        6.7896391700
 Pt        12.4733636200        8.8018331400        6.7896391700
 Pt        15.2452222000        8.8018331400        6.7896391700
 Pt        18.0170807800        8.8018331400        6.7896391700
 Pt         5.5437171600       11.2023330900        6.7896391700
 Pt         8.3155757500       11.2023330900        6.7896391700
 Pt        11.0874343300       11.2023330900        6.7896391700
 Pt        13.8592929100       11.2023330900        6.7896391700
 Pt        16.6311514900       11.2023330900        6.7896391700
 Pt        19.4030100800       11.2023330900        6.7896391700
 Pt         6.9296464600       13.6028330400        6.7896391700
 Pt         9.7015050400       13.6028330400        6.7896391700
 Pt        12.4733636200       13.6028330400        6.7896391700
 Pt        15.2452222000       13.6028330400        6.7896391700
 Pt        18.0170807800       13.6028330400        6.7896391700
 Pt        20.7889393700       13.6028330400        6.7896391700
 Pt         0.0006014274        0.0008558591        9.0730797767
 Pt         2.7480103720        0.0008682803        9.0962387343
 Pt         5.5231058341        0.0021280393        9.1326339014
 Pt         8.3160126605       -0.0014328095        9.1365511780
 Pt        11.1077309005        0.0003356543        9.1334590570
 Pt        13.8859905768        0.0009030710        9.0946850566
 Pt         1.3760705412        2.3825390804        9.1003967663
 Pt         4.1371713200        2.3888870484        9.1282807030
 Pt         6.9224599451        2.3997247344        9.1376138019
 Pt         9.7098033036        2.4013690046        9.1349847493
 Pt        12.4947159747        2.3891265502        9.1290327173
 Pt        15.2585790757        2.3788165624        9.0962971754
 Pt         2.7650375480        4.7837303945        9.1306094737
 Pt         5.5371743470        4.7926539412        9.1362226872
 Pt         8.3100497171        4.7997436193        9.1459159414
 Pt        11.0933997190        4.7926140373        9.1320680399
 Pt        13.8683655016        4.7856993391        9.1352285310
 Pt        16.6301999366        4.7763294886        9.1293239085
 Pt         4.1553704933        7.1984818936        9.1386785599
 Pt         6.9330107473        7.2074918004        9.1386050185
 Pt         9.6972914928        7.2151088250        9.1321819777
 Pt        12.4735779025        7.2007870956        9.1380660237
 Pt        15.2508316031        7.1922648009        9.1374405842
 Pt        18.0136542796        7.1993262915        9.1357343276
 Pt         5.5528378115        9.6187150789        9.1360286550
 Pt         8.3158705720        9.6293397046        9.1266310397
 Pt        11.0771178538        9.6196394940        9.1321932493
 Pt        13.8564922029        9.6077483103        9.1371922963
 Pt        16.6298275726        9.6030612478        9.1409936383
 Pt        19.4069176445        9.6088175050        9.1361735614
 Pt         6.9426699102       12.0238182411        9.0981317964
 Pt         9.6880994647       12.0274411388        9.0942952687
 Pt        12.4514621270       12.0122624734        9.1293729839
 Pt        15.2426548435       11.9999410985        9.1391381901
 Pt        18.0251690806       12.0037068269        9.1329530114
 Pt        20.8026338071       12.0112149545        9.1310921199
     180
 i =        3, E =    -21710.7248561209
 Pt         0.0000000000        1.6003333000        0.0000000000
 Pt         2.7718585800        1.6003333000        0.0000000000
 Pt         5.5437171600        1.6003333000        0.0000000000
 Pt         8.3155757500        1.6003333000        0.0000000000
 Pt        11.0874343300        1.6003333000        0.0000000000
 Pt        13.8592929100        1.6003333000        0.0000000000
 Pt         1.3859292900        4.0008332500        0.0000000000
 Pt         4.1577878700        4.0008332500        0.0000000000
 Pt         6.9296464600        4.0008332500        0.0000000000
 Pt         9.7015050400        4.0008332500        0.0000000000
 Pt        12.4733636200        4.0008332500        0.0000000000
 Pt        15.2452222000        4.0008332500        0.0000000000
 Pt         2.7718585800        6.4013331900        0.0000000000
 Pt         5.5437171600        6.4013331900        0.0000000000
 Pt         8.3155757500        6.4013331900        0.0000000000
 Pt        11.0874343300        6.4013331900        0.0000000000
 Pt        13.8592929100        6.4013331900        0.0000000000
 Pt        16.6311514900        6.4013331900        0.0000000000
 Pt         4.1577878700        8.8018331400        0.0000000000
 Pt         6.9296464600        8.8018331400        0.0000000000
 Pt         9.7015050400        8.8018331400        0.0000000000
 Pt        12.4733636200        8.8018331400        0.0000000000
 Pt        15.2452222000        8.8018331400        0.0000000000
 Pt        18.0170807800        8.8018331400        0.0000000000
 Pt         5.5437171600       11.2023330900        0.0000000000
 Pt         8.3155757500       11.2023330900        0.0000000000
 Pt        11.0874343300       11.2023330900        0.0000000000
 Pt        13.8592929100       11.2023330900        0.0000000000
 Pt        16.6311514900       11.2023330900        0.0000000000
 Pt        19.4030100800       11.2023330900        0.0000000000
 Pt         6.9296464600       13.6028330400        0.0000000000
 Pt         9.7015050400       13.6028330400        0.0000000000
 Pt        12.4733636200       13.6028330400        0.0000000000
 Pt        15.2452222000       13.6028330400        0.0000000000
 Pt        18.0170807800       13.6028330400        0.0000000000
 Pt        20.7889393700       13.6028330400        0.0000000000
 Pt         0.0000000000        0.0000000000        2.2632130600
 Pt         2.7718585800        0.0000000000        2.2632130600
 Pt         5.5437171600        0.0000000000        2.2632130600
 Pt         8.3155757500        0.0000000000        2.2632130600
 Pt        11.0874343300        0.0000000000        2.2632130600
 Pt        13.8592929100        0.0000000000        2.2632130600
 Pt         1.3859292900        2.4004999500        2.2632130600
 Pt         4.1577878700        2.4004999500        2.2632130600
 Pt         6.9296464600        2.4004999500        2.2632130600
 Pt         9.7015050400        2.4004999500        2.2632130600
 Pt        12.4733636200        2.4004999500        2.2632130600
 Pt        15.2452222000        2.4004999500        2.2632130600
 Pt         2.7718585800        4.8009999000        2.2632130600
 Pt         5.5437171600        4.8009999000        2.2632130600
 Pt         8.3155757500        4.8009999000        2.2632130600
 Pt        11.0874343300        4.8009999000        2.2632130600
 Pt        13.8592929100        4.8009999000        2.2632130600
 Pt        16.6311514900        4.8009999000        2.2632130600
 Pt         4.1577878700        7.2014998400        2.2632130600
 Pt         6.9296464600        7.2014998400        2.2632130600
 Pt         9.7015050400        7.2014998400        2.2632130600
 Pt        12.4733636200        7.2014998400        2.2632130600
 Pt        15.2452222000        7.2014998400        2.2632130600
 Pt        18.0170807800        7.2014998400        2.2632130600
 Pt         5.5437171600        9.6019997900        2.2632130600
 Pt         8.3155757500        9.6019997900        2.2632130600
 Pt        11.0874343300        9.6019997900        2.2632130600
 Pt        13.8592929100        9.6019997900        2.2632130600
 Pt        16.6311514900        9.6019997900        2.2632130600
 Pt        19.4030100800        9.6019997900        2.2632130600
 Pt         6.9296464600       12.0024997400        2.2632130600
 Pt         9.7015050400       12.0024997400        2.2632130600
 Pt        12.4733636200       12.0024997400        2.2632130600
 Pt        15.2452222000       12.0024997400        2.2632130600
 Pt        18.0170807800       12.0024997400        2.2632130600
 Pt        20.7889393700       12.0024997400        2.2632130600
 Pt         1.3859292900        0.8001666500        4.5264261100
 Pt         4.1577878700        0.8001666500        4.5264261100
 Pt         6.9296464600        0.8001666500        4.5264261100
 Pt         9.7015050400        0.8001666500        4.5264261100
 Pt        12.4733636200        0.8001666500        4.5264261100
 Pt        15.2452222000        0.8001666500        4.5264261100
 Pt         2.7718585800        3.2006666000        4.5264261100
 Pt         5.5437171600        3.2006666000        4.5264261100
 Pt         8.3155757500        3.2006666000        4.5264261100
 Pt        11.0874343300        3.2006666000        4.5264261100
 Pt        13.8592929100        3.2006666000        4.5264261100
 Pt        16.6311514900        3.2006666000        4.5264261100
 Pt         4.1577878700        5.6011665500        4.5264261100
 Pt         6.9296464600        5.6011665500        4.5264261100
 Pt         9.7015050400        5.6011665500        4.5264261100
 Pt        12.4733636200        5.6011665500        4.5264261100
 Pt        15.2452222000        5.6011665500        4.5264261100
 Pt        18.0170807800        5.6011665500        4.5264261100
 Pt         5.5437171600        8.0016664900        4.5264261100
 Pt         8.3155757500        8.0016664900        4.5264261100
 Pt        11.0874343300        8.0016664900        4.5264261100
 Pt        13.8592929100        8.0016664900        4.5264261100
 Pt        16.6311514900        8.0016664900        4.5264261100
 Pt        19.4030100800        8.0016664900        4.5264261100
 Pt         6.9296464600       10.4021664400        4.5264261100
 Pt         9.7015050400       10.4021664400        4.5264261100
 Pt        12.4733636200       10.4021664400        4.5264261100