 DBCSR| CPU Multiplication driver                                           XSMM
 DBCSR| Multrec recursion limit                                              512
 DBCSR| Multiplication stack size                                           1000
 DBCSR| Maximum elements for images                                    UNLIMITED
 DBCSR| Multiplicative factor virtual images                                   1
 DBCSR| Use multiplication densification                                       T
 DBCSR| Multiplication size stacks                                             3
 DBCSR| Use memory pool for CPU allocation                                     F
 DBCSR| Number of 3D layers                                               SINGLE
 DBCSR| Use MPI memory allocation                                              F
 DBCSR| Use RMA algorithm                                                      F
 DBCSR| Use Communication thread                                               T
 DBCSR| Communication thread load                                             87
 DBCSR| MPI: My node id                                                        0
 DBCSR| MPI: Number of nodes                                                 256
 DBCSR| OMP: Current number of threads                                         1
 DBCSR| OMP: Max number of threads                                             1
 DBCSR| Split modifier for TAS multiplication algorithm                  1.0E+00


  **** **** ******  **  PROGRAM STARTED AT               2023-04-19 11:33:01.306
 ***** ** ***  *** **   PROGRAM STARTED ON                             nid001305
 **    ****   ******    PROGRAM STARTED BY                              dpassero
 ***** **    ** ** **   PROGRAM PROCESS ID                                196123
  **** **  *******  **  PROGRAM STARTED IN /scratch/e1000/dpassero/MMM_2023/jbac
                                           hmann/benzene/benzene/full

 CP2K| version string:                 CP2K version 2022.1 (Development Version)
 CP2K| source code revision number:                                  git:4ddb46c
 CP2K| cp2kflags: omp libint fftw3 libxc elpa parallel mpi3 scalapack xsmm max_c
 CP2K|            ontr=4 plumed2 spglib
 CP2K| is freely available from                            https://www.cp2k.org/
 CP2K| Program compiled at                      Wed 14 Sep 2022 12:18:41 PM CEST
 CP2K| Program compiled on                                             nid001080
 CP2K| Program compiled for                                 Eiger-gfortran_May22
 CP2K| Data directory path         /users/mmi/DEV/CP2K/trunk_new/eiger/cp2k/data
 CP2K| Input file name        /scratch/e1000/dpassero/MMM_2023/jbachmann/benzene

 GLOBAL| Force Environment number                                              1
 GLOBAL| Basis set file name                                        BASIS_MOLOPT
 GLOBAL| Potential file name                                           POTENTIAL
 GLOBAL| MM Potential file name                                     MM_POTENTIAL
 GLOBAL| Coordinate file name                                  benzene_on_pt.xyz
 GLOBAL| Method name                                                        CP2K
 GLOBAL| Project name                                              benzene_on_pt
 GLOBAL| Run type                                                        GEO_OPT
 GLOBAL| FFT library                                                       FFTW3
 GLOBAL| Diagonalization library                                            ELPA
 GLOBAL| DGEMM library                                                      BLAS
 GLOBAL| Minimum number of eigenvectors for ELPA usage                        16
 GLOBAL| Orthonormality check for eigenvectors                          DISABLED
 GLOBAL| Matrix multiplication library                                 ScaLAPACK
 GLOBAL| All-to-all communication in single precision                          F
 GLOBAL| FFTs using library dependent lengths                                  T
 GLOBAL| Grid backend                                                       AUTO
 GLOBAL| Global print level                                                  LOW
 GLOBAL| MPI I/O enabled                                                       T
 GLOBAL| Total number of message passing processes                           256
 GLOBAL| Number of threads for this process                                    1
 GLOBAL| This output is from process                                           0
 GLOBAL| Stack size for threads created by OpenMP (OMP_STACKSIZE)           100M
 GLOBAL| CPU model name                          AMD EPYC 7742 64-Core Processor
 GLOBAL| CPUID                                                              1002

 MEMORY| system memory details [Kb]
 MEMORY|                        rank 0           min           max       average
 MEMORY| MemTotal            263506204     263506204     527747268     395626736
 MEMORY| MemFree             231057388     231057388     489522444     360289916
 MEMORY| Buffers                481576        481576        537604        509590
 MEMORY| Cached                4174468       4174468       9057940       6616204
 MEMORY| Slab                  7631852       7631852       8837712       8234784
 MEMORY| SReclaimable           501924        501924       1224748        863336
 MEMORY| MemLikelyFree       236215356     236215356     500342736     368279046


 GENERATE|  Preliminary Number of Bonds generated:                             0
 GENERATE|  Achieved consistency in connectivity generation.

 *******************************************************************************
 *******************************************************************************
 **                                                                           **
 **     #####                         ##              ##                      **
 **    ##   ##            ##          ##              ##                      **
 **   ##     ##                       ##            ######                    **
 **   ##     ##  ##   ##  ##   #####  ##  ##   ####   ##    #####    #####    **
 **   ##     ##  ##   ##  ##  ##      ## ##   ##      ##   ##   ##  ##   ##   **
 **   ##  ## ##  ##   ##  ##  ##      ####     ###    ##   ######   ######    **
 **    ##  ###   ##   ##  ##  ##      ## ##      ##   ##   ##       ##        **
 **     #######   #####   ##   #####  ##  ##  ####    ##    #####   ##        **
 **           ##                                                    ##        **
 **                                                                           **
 **                                                ... make the atoms dance   **
 **                                                                           **
 **            Copyright (C) by CP2K developers group (2000-2022)             **
 **                      J. Chem. Phys. 152, 194103 (2020)                    **
 **                                                                           **
 *******************************************************************************


 TOTAL NUMBERS AND MAXIMUM NUMBERS

  Total number of            - Atomic kinds:                                   3
                             - Atoms:                                        192
                             - Shell sets:                                   192
                             - Shells:                                      1488
                             - Primitive Cartesian functions:               1164
                             - Cartesian basis functions:                   5694
                             - Spherical basis functions:                   4788

  Maximum angular momentum of- Orbital basis functions:                        3
                             - Local part of the GTH pseudopotential:          2
                             - Non-local part of the GTH pseudopotential:      5


 SCF PARAMETERS         Density guess:                                   RESTART
                        --------------------------------------------------------
                        max_scf:                                              30
                        max_scf_history:                                       0
                        max_diis:                                              4
                        --------------------------------------------------------
                        eps_scf:                                        1.00E-06
                        eps_scf_history:                                0.00E+00
                        eps_diis:                                       1.00E-01
                        eps_eigval:                                     1.00E-05
                        --------------------------------------------------------
                        level_shift [a.u.]:                             0.000000
                        --------------------------------------------------------
                        Outer loop SCF in use 
                        No variables optimised in outer loop
                        eps_scf                                         1.00E-06
                        max_scf                                               20
                        No outer loop optimization
                        step_size                                       5.00E-01

 BFGS| Use rational function optimization for step estimation:                NO
 BFGS| Use model Hessian for initial guess:                                  YES
 BFGS| Restart Hessian:                                                       NO
 BFGS| Trust radius:                                                       0.100

 *******************************************************************************
 ***                     STARTING GEOMETRY OPTIMIZATION                      ***
 ***                                   BFGS                                  ***
 *******************************************************************************

 Number of electrons:                                                       3270
 Number of occupied orbitals:                                               1635
 Number of molecular orbitals:                                              1635

 Number of orbital functions:                                               4788
 Number of independent orbital functions:                                   4788

 Extrapolation method: initial_guess


 SCF WAVEFUNCTION OPTIMIZATION

  ----------------------------------- OT ---------------------------------------
  Minimizer      : DIIS                : direct inversion
                                         in the iterative subspace
                                         using   7 DIIS vectors
                                         safer DIIS on
  Preconditioner : FULL_KINETIC        : inversion of T + eS
  Precond_solver : DEFAULT
  stepsize       :    0.15000000                  energy_gap     :    0.20000000
  eps_taylor     :   0.10000E-15                  max_taylor     :             4
  ----------------------------------- OT ---------------------------------------

  Step     Update method      Time    Convergence         Total energy    Change
  ------------------------------------------------------------------------------
     1 OT DIIS     0.15E+00    1.7     0.00029349    -21748.5617200247 -2.17E+04
     2 OT DIIS     0.15E+00    1.8     0.00021050    -21748.6415609867 -7.98E-02
     3 OT DIIS     0.15E+00    1.8     0.00017758    -21748.6905364888 -4.90E-02
     4 OT DIIS     0.15E+00    1.8     0.00015003    -21748.7327722635 -4.22E-02
     5 OT DIIS     0.15E+00    1.8     0.00010504    -21748.7561383234 -2.34E-02
     6 OT DIIS     0.15E+00    2.0     0.00009438    -21748.7741613340 -1.80E-02
     7 OT DIIS     0.15E+00    2.0     0.00007111    -21748.7891593212 -1.50E-02
     8 OT DIIS     0.15E+00    2.0     0.00005917    -21748.8023959619 -1.32E-02
     9 OT DIIS     0.15E+00    2.0     0.00004894    -21748.8093100030 -6.91E-03
    10 OT DIIS     0.15E+00    2.0     0.00004325    -21748.8158557735 -6.55E-03
    11 OT DIIS     0.15E+00    2.0     0.00003804    -21748.8207002468 -4.84E-03
    12 OT DIIS     0.15E+00    2.0     0.00003308    -21748.8251773260 -4.48E-03
    13 OT DIIS     0.15E+00    2.0     0.00003001    -21748.8280191255 -2.84E-03
    14 OT DIIS     0.15E+00    2.0     0.00002743    -21748.8308677859 -2.85E-03
    15 OT DIIS     0.15E+00    2.0     0.00002464    -21748.8330749899 -2.21E-03
    16 OT DIIS     0.15E+00    2.0     0.00002219    -21748.8350577320 -1.98E-03
    17 OT DIIS     0.15E+00    2.0     0.00002074    -21748.8364413207 -1.38E-03
    18 OT DIIS     0.15E+00    2.0     0.00001922    -21748.8378321834 -1.39E-03
    19 OT DIIS     0.15E+00    2.0     0.00001773    -21748.8390829307 -1.25E-03
    20 OT DIIS     0.15E+00    2.0     0.00001666    -21748.8401302230 -1.05E-03
    21 OT DIIS     0.15E+00    2.0     0.00001578    -21748.8410180051 -8.88E-04
    22 OT DIIS     0.15E+00    2.0     0.00001477    -21748.8419096827 -8.92E-04
    23 OT DIIS     0.15E+00    2.0     0.00001371    -21748.8427923873 -8.83E-04
    24 OT DIIS     0.15E+00    2.0     0.00001306    -21748.8434757305 -6.83E-04
    25 OT DIIS     0.15E+00    1.9     0.00001248    -21748.8440519195 -5.76E-04
    26 OT DIIS     0.15E+00    2.0     0.00001189    -21748.8446367932 -5.85E-04
    27 OT DIIS     0.15E+00    2.0     0.00001125    -21748.8451871436 -5.50E-04
    28 OT DIIS     0.15E+00    1.9     0.00001078    -21748.8456311216 -4.44E-04
    29 OT DIIS     0.15E+00    2.0     0.00001032    -21748.8460482202 -4.17E-04
    30 OT DIIS     0.15E+00    2.0     0.00000996    -21748.8464601874 -4.12E-04

  Leaving inner SCF loop after reaching    30 steps.


  Electronic density on regular grids:      -3269.9999999950        0.0000000050
  Core density on regular grids:             3269.9999999998       -0.0000000002
  Total charge density on r-space grids:        0.0000000047
  Total charge density g-space grids:           0.0000000047

  Overlap energy of the core charge distribution:               0.00000335738129
  Self energy of the core charge distribution:             -32992.00940381895634
  Core Hamiltonian energy:                                   7385.03759943572641
  Hartree energy:                                            6065.69154750158214
  Exchange-correlation energy:                              -2223.65992258903952
  Dispersion energy:                                           16.09371592588599

  Total energy:                                            -21748.84646018741842

  outer SCF iter =    1 RMS gradient =   0.10E-04 energy =     -21748.8464601874

  ----------------------------------- OT ---------------------------------------
  Minimizer      : DIIS                : direct inversion
                                         in the iterative subspace
                                         using   7 DIIS vectors
                                         safer DIIS on
  Preconditioner : FULL_KINETIC        : inversion of T + eS
  Precond_solver : DEFAULT
  stepsize       :    0.15000000                  energy_gap     :    0.20000000
  eps_taylor     :   0.10000E-15                  max_taylor     :             4
  ----------------------------------- OT ---------------------------------------

  Step     Update method      Time    Convergence         Total energy    Change
  ------------------------------------------------------------------------------
     1 OT DIIS     0.15E+00    4.0     0.00000959    -21748.8468364878 -3.76E-04
     2 OT DIIS     0.15E+00    1.7     0.00001026    -21748.8469332495 -9.68E-05
     3 OT DIIS     0.15E+00    1.7     0.00000904    -21748.8469732451 -4.00E-05
     4 OT DIIS     0.15E+00    1.8     0.00000890    -21748.8472163536 -2.43E-04
     5 OT DIIS     0.15E+00    1.8     0.00000824    -21748.8476787108 -4.62E-04
     6 OT DIIS     0.15E+00    1.7     0.00000810    -21748.8478553433 -1.77E-04
     7 OT DIIS     0.15E+00    1.7     0.00000755    -21748.8486788284 -8.23E-04
     8 OT DIIS     0.15E+00    1.7     0.00000687    -21748.8493728569 -6.94E-04
     9 OT DIIS     0.15E+00    1.8     0.00000658    -21748.8497995571 -4.27E-04
    10 OT DIIS     0.15E+00    1.8     0.00000634    -21748.8501163378 -3.17E-04
    11 OT DIIS     0.15E+00    1.8     0.00000588    -21748.8507753743 -6.59E-04
    12 OT DIIS     0.15E+00    1.7     0.00000537    -21748.8510858638 -3.10E-04
    13 OT DIIS     0.15E+00    1.8     0.00000516    -21748.8512658718 -1.80E-04
    14 OT DIIS     0.15E+00    1.7     0.00000502    -21748.8513823961 -1.17E-04
    15 OT DIIS     0.15E+00    1.8     0.00000480    -21748.8515578003 -1.75E-04
    16 OT DIIS     0.15E+00    1.8     0.00000463    -21748.8516931808 -1.35E-04
    17 OT DIIS     0.15E+00    1.8     0.00000456    -21748.8517666504 -7.35E-05
    18 OT DIIS     0.15E+00    1.7     0.00000447    -21748.8518178413 -5.12E-05
    19 OT DIIS     0.15E+00    1.7     0.00000437    -21748.8518949883 -7.71E-05
    20 OT DIIS     0.15E+00    1.7     0.00000429    -21748.8519485952 -5.36E-05
    21 OT DIIS     0.15E+00    1.7     0.00000425    -21748.8520064899 -5.79E-05
    22 OT DIIS     0.15E+00    1.7     0.00000419    -21748.8520566909 -5.02E-05
    23 OT DIIS     0.15E+00    1.7     0.00000411    -21748.8521240873 -6.74E-05
    24 OT DIIS     0.15E+00    1.8     0.00000406    -21748.8521723588 -4.83E-05
    25 OT DIIS     0.15E+00    1.8     0.00000404    -21748.8522233643 -5.10E-05
    26 OT DIIS     0.15E+00    1.8     0.00000400    -21748.8522916377 -6.83E-05
    27 OT DIIS     0.15E+00    1.7     0.00000391    -21748.8524143275 -1.23E-04
    28 OT DIIS     0.15E+00    1.7     0.00000384    -21748.8525035828 -8.93E-05
    29 OT DIIS     0.15E+00    1.7     0.00000380    -21748.8525994362 -9.59E-05
    30 OT DIIS     0.15E+00    1.7     0.00000371    -21748.8527235116 -1.24E-04

  Leaving inner SCF loop after reaching    30 steps.


  Electronic density on regular grids:      -3270.0000000106       -0.0000000106
  Core density on regular grids:             3269.9999999998       -0.0000000002
  Total charge density on r-space grids:       -0.0000000109
  Total charge density g-space grids:          -0.0000000109

  Overlap energy of the core charge distribution:               0.00000335738129
  Self energy of the core charge distribution:             -32992.00940381895634
  Core Hamiltonian energy:                                   7385.03906923459817
  Hartree energy:                                            6065.68439335632593
  Exchange-correlation energy:                              -2223.66047673337653
  Dispersion energy:                                           16.09369109239126

  Total energy:                                            -21748.85272351163803

  outer SCF iter =    2 RMS gradient =   0.37E-05 energy =     -21748.8527235116

  ----------------------------------- OT ---------------------------------------
  Minimizer      : DIIS                : direct inversion
                                         in the iterative subspace
                                         using   7 DIIS vectors
                                         safer DIIS on
  Preconditioner : FULL_KINETIC        : inversion of T + eS
  Precond_solver : DEFAULT
  stepsize       :    0.15000000                  energy_gap     :    0.20000000
  eps_taylor     :   0.10000E-15                  max_taylor     :             4
  ----------------------------------- OT ---------------------------------------

  Step     Update method      Time    Convergence         Total energy    Change
  ------------------------------------------------------------------------------
     1 OT DIIS     0.15E+00    3.8     0.00000360    -21748.8528762830 -1.53E-04
     2 OT DIIS     0.15E+00    1.7     0.00000361    -21748.8528911458 -1.49E-05
     3 OT DIIS     0.15E+00    1.7     0.00000353    -21748.8528982720 -7.13E-06
     4 OT DIIS     0.15E+00    1.7     0.00000351    -21748.8529445912 -4.63E-05
     5 OT DIIS     0.15E+00    1.7     0.00000337    -21748.8530260883 -8.15E-05
     6 OT DIIS     0.15E+00    1.8     0.00000335    -21748.8530509231 -2.48E-05
     7 OT DIIS     0.15E+00    1.7     0.00000327    -21748.8531956548 -1.45E-04
     8 OT DIIS     0.15E+00    1.7     0.00000315    -21748.8533388788 -1.43E-04
     9 OT DIIS     0.15E+00    1.7     0.00000308    -21748.8534528121 -1.14E-04
    10 OT DIIS     0.15E+00    1.7     0.00000305    -21748.8535627670 -1.10E-04
    11 OT DIIS     0.15E+00    1.7     0.00000284    -21748.8539189178 -3.56E-04
    12 OT DIIS     0.15E+00    1.8     0.00000269    -21748.8540811240 -1.62E-04
    13 OT DIIS     0.15E+00    1.7     0.00000260    -21748.8541938067 -1.13E-04
    14 OT DIIS     0.15E+00    1.8     0.00000253    -21748.8542757531 -8.19E-05
    15 OT DIIS     0.15E+00    1.7     0.00000241    -21748.8544229405 -1.47E-04
    16 OT DIIS     0.15E+00    1.8     0.00000225    -21748.8545230871 -1.00E-04
    17 OT DIIS     0.15E+00    1.7     0.00000219    -21748.8545819918 -5.89E-05
    18 OT DIIS     0.15E+00    1.7     0.00000214    -21748.8546068011 -2.48E-05
    19 OT DIIS     0.15E+00    1.8     0.00000207    -21748.8546434882 -3.67E-05
    20 OT DIIS     0.15E+00    1.7     0.00000202    -21748.8546617989 -1.83E-05
    21 OT DIIS     0.15E+00    1.8     0.00000200    -21748.8546799354 -1.81E-05
    22 OT DIIS     0.15E+00    1.7     0.00000199    -21748.8546831678 -3.23E-06
    23 OT DIIS     0.15E+00    1.8     0.00000196    -21748.8546976228 -1.45E-05
    24 OT DIIS     0.15E+00    1.7     0.00000194    -21748.8547082520 -1.06E-05
    25 OT DIIS     0.15E+00    1.7     0.00000194    -21748.8547200567 -1.18E-05
    26 OT DIIS     0.15E+00    1.7     0.00000193    -21748.8547297399 -9.68E-06
    27 OT DIIS     0.15E+00    1.8     0.00000190    -21748.8547599164 -3.02E-05
    28 OT DIIS     0.15E+00    1.7     0.00000189    -21748.8547794220 -1.95E-05
    29 OT DIIS     0.15E+00    1.7     0.00000188    -21748.8547939403 -1.45E-05
    30 OT DIIS     0.15E+00    1.7     0.00000187    -21748.8548094070 -1.55E-05

  Leaving inner SCF loop after reaching    30 steps.


  Electronic density on regular grids:      -3269.9999999966        0.0000000034
  Core density on regular grids:             3269.9999999998       -0.0000000002
  Total charge density on r-space grids:        0.0000000031
  Total charge density g-space grids:           0.0000000031

  Overlap energy of the core charge distribution:               0.00000335738129
  Self energy of the core charge distribution:             -32992.00940381895634
  Core Hamiltonian energy:                                   7385.03928252337028
  Hartree energy:                                            6065.68168835378947
  Exchange-correlation energy:                              -2223.66004850958871
  Dispersion energy:                                           16.09366868701900

  Total energy:                                            -21748.85480940698108

  outer SCF iter =    3 RMS gradient =   0.19E-05 energy =     -21748.8548094070

  ----------------------------------- OT ---------------------------------------
  Minimizer      : DIIS                : direct inversion
                                         in the iterative subspace
                                         using   7 DIIS vectors
                                         safer DIIS on
  Preconditioner : FULL_KINETIC        : inversion of T + eS
  Precond_solver : DEFAULT
  stepsize       :    0.15000000                  energy_gap     :    0.20000000
  eps_taylor     :   0.10000E-15                  max_taylor     :             4
  ----------------------------------- OT ---------------------------------------

  Step     Update method      Time    Convergence         Total energy    Change
  ------------------------------------------------------------------------------
     1 OT DIIS     0.15E+00    3.8     0.00000185    -21748.8548525123 -4.31E-05
     2 OT DIIS     0.15E+00    1.7     0.00000187    -21748.8548564433 -3.93E-06
     3 OT DIIS     0.15E+00    1.7     0.00000183    -21748.8548580302 -1.59E-06
     4 OT DIIS     0.15E+00    1.7     0.00000182    -21748.8548672865 -9.26E-06
     5 OT DIIS     0.15E+00    1.7     0.00000180    -21748.8548943803 -2.71E-05
     6 OT DIIS     0.15E+00    1.7     0.00000179    -21748.8549039544 -9.57E-06
     7 OT DIIS     0.15E+00    1.7     0.00000177    -21748.8549490817 -4.51E-05
     8 OT DIIS     0.15E+00    1.7     0.00000173    -21748.8550152779 -6.62E-05
     9 OT DIIS     0.15E+00    1.8     0.00000171    -21748.8550492509 -3.40E-05
    10 OT DIIS     0.15E+00    1.7     0.00000169    -21748.8550906418 -4.14E-05
    11 OT DIIS     0.15E+00    1.7     0.00000165    -21748.8552160892 -1.25E-04
    12 OT DIIS     0.15E+00    1.7     0.00000156    -21748.8553481001 -1.32E-04
    13 OT DIIS     0.15E+00    1.8     0.00000152    -21748.8554151189 -6.70E-05
    14 OT DIIS     0.15E+00    1.7     0.00000147    -21748.8554780321 -6.29E-05
    15 OT DIIS     0.15E+00    1.8     0.00000143    -21748.8555627611 -8.47E-05
    16 OT DIIS     0.15E+00    1.8     0.00000133    -21748.8556720841 -1.09E-04
    17 OT DIIS     0.15E+00    1.7     0.00000129    -21748.8557080974 -3.60E-05
    18 OT DIIS     0.15E+00    1.8     0.00000125    -21748.8557367161 -2.86E-05
    19 OT DIIS     0.15E+00    1.7     0.00000122    -21748.8557558552 -1.91E-05
    20 OT DIIS     0.15E+00    1.7     0.00000118    -21748.8557730242 -1.72E-05
    21 OT DIIS     0.15E+00    1.7     0.00000117    -21748.8557835855 -1.06E-05
    22 OT DIIS     0.15E+00    1.8     0.00000116    -21748.8557871547 -3.57E-06
    23 OT DIIS     0.15E+00    1.7     0.00000116    -21748.8557883108 -1.16E-06
    24 OT DIIS     0.15E+00    1.7     0.00000114    -21748.8557929298 -4.62E-06
    25 OT DIIS     0.15E+00    1.8     0.00000114    -21748.8557950590 -2.13E-06
    26 OT DIIS     0.15E+00    1.7     0.00000113    -21748.8557994169 -4.36E-06
    27 OT DIIS     0.15E+00    1.7     0.00000113    -21748.8558059816 -6.56E-06
    28 OT DIIS     0.15E+00    1.7     0.00000112    -21748.8558123886 -6.41E-06
    29 OT DIIS     0.15E+00    1.7     0.00000112    -21748.8558155215 -3.13E-06
    30 OT DIIS     0.15E+00    1.8     0.00000112    -21748.8558195102 -3.99E-06

  Leaving inner SCF loop after reaching    30 steps.


  Electronic density on regular grids:      -3269.9999999958        0.0000000042
  Core density on regular grids:             3269.9999999998       -0.0000000002
  Total charge density on r-space grids:        0.0000000039
  Total charge density g-space grids:           0.0000000039

  Overlap energy of the core charge distribution:               0.00000335738129
  Self energy of the core charge distribution:             -32992.00940381895634
  Core Hamiltonian energy:                                   7385.04296839475501
  Hartree energy:                                            6065.67748488747930
  Exchange-correlation energy:                              -2223.66053789526995
  Dispersion energy:                                           16.09366556439567

  Total energy:                                            -21748.85581951021231

  outer SCF iter =    4 RMS gradient =   0.11E-05 energy =     -21748.8558195102

  ----------------------------------- OT ---------------------------------------
  Minimizer      : DIIS                : direct inversion
                                         in the iterative subspace
                                         using   7 DIIS vectors
                                         safer DIIS on
  Preconditioner : FULL_KINETIC        : inversion of T + eS
  Precond_solver : DEFAULT
  stepsize       :    0.15000000                  energy_gap     :    0.20000000
  eps_taylor     :   0.10000E-15                  max_taylor     :             4
  ----------------------------------- OT ---------------------------------------

  Step     Update method      Time    Convergence         Total energy    Change
  ------------------------------------------------------------------------------
     1 OT DIIS     0.15E+00    3.8     0.00000111    -21748.8558290512 -9.54E-06
     2 OT DIIS     0.15E+00    1.7     0.00000111    -21748.8558304915 -1.44E-06
     3 OT DIIS     0.15E+00    1.7     0.00000111    -21748.8558311195 -6.28E-07
     4 OT DIIS     0.15E+00    1.7     0.00000111    -21748.8558344610 -3.34E-06
     5 OT DIIS     0.15E+00    1.7     0.00000110    -21748.8558467295 -1.23E-05
     6 OT DIIS     0.15E+00    1.7     0.00000109    -21748.8558517790 -5.05E-06
     7 OT DIIS     0.15E+00    1.7     0.00000108    -21748.8558795819 -2.78E-05
     8 OT DIIS     0.15E+00    1.7     0.00000106    -21748.8559172789 -3.77E-05
     9 OT DIIS     0.15E+00    1.7     0.00000105    -21748.8559394883 -2.22E-05
    10 OT DIIS     0.15E+00    1.8     0.00000104    -21748.8559650530 -2.56E-05
    11 OT DIIS     0.15E+00    1.7     0.00000102    -21748.8560522954 -8.72E-05
    12 OT DIIS     0.15E+00    1.7     0.00000097    -21748.8561252852 -7.30E-05

  *** SCF run converged in    12 steps ***


  Electronic density on regular grids:      -3269.9999999950        0.0000000050
  Core density on regular grids:             3269.9999999998       -0.0000000002
  Total charge density on r-space grids:        0.0000000047
  Total charge density g-space grids:           0.0000000047

  Overlap energy of the core charge distribution:               0.00000335738129
  Self energy of the core charge distribution:             -32992.00940381895634
  Core Hamiltonian energy:                                   7385.04714467800841
  Hartree energy:                                            6065.67381201286480
  Exchange-correlation energy:                              -2223.66136155071672
  Dispersion energy:                                           16.09368003621164

  Total energy:                                            -21748.85612528520869

  outer SCF iter =    5 RMS gradient =   0.97E-06 energy =     -21748.8561252852
  outer SCF loop converged in   5 iterations or  132 steps


 ENERGY| Total FORCE_EVAL ( QS ) energy [a.u.]:           -21748.856160372859449

 --------  Informations at step =     0 ------------
  Optimization Method        =                 BFGS
  Total Energy               =    -21748.8561603729
  Used time                  =              244.493
 ---------------------------------------------------

 --------------------------
 OPTIMIZATION STEP:      1
 --------------------------

  Step is scaled; Scaling factor =  0.41061

 Number of electrons:                                                       3270
 Number of occupied orbitals:                                               1635
 Number of molecular orbitals:                                              1635

 Number of orbital functions:                                               4788
 Number of independent orbital functions:                                   4788

 Extrapolation method: ASPC


 SCF WAVEFUNCTION OPTIMIZATION

  ----------------------------------- OT ---------------------------------------
  Minimizer      : DIIS                : direct inversion
                                         in the iterative subspace
                                         using   7 DIIS vectors
                                         safer DIIS on
  Preconditioner : FULL_KINETIC        : inversion of T + eS
  Precond_solver : DEFAULT
  stepsize       :    0.15000000                  energy_gap     :    0.20000000
  eps_taylor     :   0.10000E-15                  max_taylor     :             4
  ----------------------------------- OT ---------------------------------------

  Step     Update method      Time    Convergence         Total energy    Change
  ------------------------------------------------------------------------------
     1 OT DIIS     0.15E+00    1.6     0.00005741    -21748.8800821002 -2.17E+04
     2 OT DIIS     0.15E+00    1.8     0.00003404    -21748.8824650385 -2.38E-03
     3 OT DIIS     0.15E+00    1.8     0.00002508    -21748.8833353048 -8.70E-04
     4 OT DIIS     0.15E+00    1.8     0.00002086    -21748.8841785674 -8.43E-04
     5 OT DIIS     0.15E+00    1.8     0.00001648    -21748.8846016023 -4.23E-04
     6 OT DIIS     0.15E+00    3.7     0.00001249    -21748.8849943751 -3.93E-04
     7 OT DIIS     0.15E+00    1.8     0.00001054    -21748.8852122998 -2.18E-04
     8 OT DIIS     0.15E+00    1.8     0.00000846    -21748.8854711537 -2.59E-04
     9 OT DIIS     0.15E+00    1.8     0.00000723    -21748.8856097311 -1.39E-04
    10 OT DIIS     0.15E+00    1.8     0.00000642    -21748.8857350544 -1.25E-04
    11 OT DIIS     0.15E+00    1.8     0.00000583    -21748.8858360184 -1.01E-04
    12 OT DIIS     0.15E+00    1.8     0.00000513    -21748.8859580679 -1.22E-04
    13 OT DIIS     0.15E+00    1.8     0.00000470    -21748.8860319305 -7.39E-05
    14 OT DIIS     0.15E+00    1.7     0.00000436    -21748.8861018380 -6.99E-05
    15 OT DIIS     0.15E+00    1.8     0.00000412    -21748.8861587362 -5.69E-05
    16 OT DIIS     0.15E+00    1.8     0.00000375    -21748.8862244807 -6.57E-05
    17 OT DIIS     0.15E+00    1.7     0.00000353    -21748.8862734847 -4.90E-05
    18 OT DIIS     0.15E+00    1.8     0.00000335    -21748.8863181275 -4.46E-05
    19 OT DIIS     0.15E+00    1.8     0.00000317    -21748.8863575756 -3.94E-05
    20 OT DIIS     0.15E+00    1.8     0.00000301    -21748.8863975493 -4.00E-05
    21 OT DIIS     0.15E+00    1.8     0.00000288    -21748.8864306314 -3.31E-05
    22 OT DIIS     0.15E+00    1.8     0.00000276    -21748.8864643263 -3.37E-05
    23 OT DIIS     0.15E+00    1.8     0.00000262    -21748.8864978033 -3.35E-05
    24 OT DIIS     0.15E+00    1.7     0.00000252    -21748.8865276485 -2.98E-05
    25 OT DIIS     0.15E+00    1.8     0.00000245    -21748.8865508968 -2.32E-05
    26 OT DIIS     0.15E+00    1.8     0.00000238    -21748.8865739770 -2.31E-05
    27 OT DIIS     0.15E+00    1.8     0.00000229    -21748.8865989727 -2.50E-05
    28 OT DIIS     0.15E+00    1.8     0.00000222    -21748.8866224997 -2.35E-05
    29 OT DIIS     0.15E+00    1.8     0.00000216    -21748.8866429377 -2.04E-05
    30 OT DIIS     0.15E+00    1.8     0.00000211    -21748.8866622734 -1.93E-05

  Leaving inner SCF loop after reaching    30 steps.


  Electronic density on regular grids:      -3270.0000000030       -0.0000000030
  Core density on regular grids:             3270.0000000001        0.0000000001
  Total charge density on r-space grids:       -0.0000000029
  Total charge density g-space grids:          -0.0000000029

  Overlap energy of the core charge distribution:               0.00000320215457
  Self energy of the core charge distribution:             -32992.00940381895634
  Core Hamiltonian energy:                                   7384.20289744723232
  Hartree energy:                                            6066.19858116510113
  Exchange-correlation energy:                              -2223.39102291746576
  Dispersion energy:                                           16.11228264850147

  Total energy:                                            -21748.88666227342765

  outer SCF iter =    1 RMS gradient =   0.21E-05 energy =     -21748.8866622734

  ----------------------------------- OT ---------------------------------------
  Minimizer      : DIIS                : direct inversion
                                         in the iterative subspace
                                         using   7 DIIS vectors
                                         safer DIIS on
  Preconditioner : FULL_KINETIC        : inversion of T + eS
  Precond_solver : DEFAULT
  stepsize       :    0.15000000                  energy_gap     :    0.20000000
  eps_taylor     :   0.10000E-15                  max_taylor     :             4
  ----------------------------------- OT ---------------------------------------

  Step     Update method      Time    Convergence         Total energy    Change
  ------------------------------------------------------------------------------
     1 OT DIIS     0.15E+00    3.8     0.00000204    -21748.8866827197 -2.04E-05
     2 OT DIIS     0.15E+00    1.7     0.00000213    -21748.8866872556 -4.54E-06
     3 OT DIIS     0.15E+00    1.7     0.00000196    -21748.8866891240 -1.87E-06
     4 OT DIIS     0.15E+00    1.7     0.00000195    -21748.8866989020 -9.78E-06
     5 OT DIIS     0.15E+00    1.7     0.00000186    -21748.8867246853 -2.58E-05
     6 OT DIIS     0.15E+00    1.7     0.00000183    -21748.8867329654 -8.28E-06
     7 OT DIIS     0.15E+00    1.7     0.00000176    -21748.8867785286 -4.56E-05
     8 OT DIIS     0.15E+00    1.7     0.00000162    -21748.8868382776 -5.97E-05
     9 OT DIIS     0.15E+00    1.8     0.00000158    -21748.8868639026 -2.56E-05
    10 OT DIIS     0.15E+00    1.7     0.00000152    -21748.8868878071 -2.39E-05
    11 OT DIIS     0.15E+00    1.7     0.00000147    -21748.8869451835 -5.74E-05
    12 OT DIIS     0.15E+00    1.8     0.00000131    -21748.8869816127 -3.64E-05
    13 OT DIIS     0.15E+00    1.7     0.00000127    -21748.8869981199 -1.65E-05
    14 OT DIIS     0.15E+00    1.7     0.00000123    -21748.8870083868 -1.03E-05
    15 OT DIIS     0.15E+00    1.7     0.00000119    -21748.8870220120 -1.36E-05
    16 OT DIIS     0.15E+00    1.8     0.00000116    -21748.8870325634 -1.06E-05
    17 OT DIIS     0.15E+00    1.7     0.00000115    -21748.8870375865 -5.02E-06
    18 OT DIIS     0.15E+00    1.8     0.00000112    -21748.8870398239 -2.24E-06
    19 OT DIIS     0.15E+00    1.8     0.00000111    -21748.8870440173 -4.19E-06
    20 OT DIIS     0.15E+00    1.7     0.00000109    -21748.8870475503 -3.53E-06
    21 OT DIIS     0.15E+00    1.8     0.00000108    -21748.8870515775 -4.03E-06
    22 OT DIIS     0.15E+00    1.7     0.00000107    -21748.8870543436 -2.77E-06
    23 OT DIIS     0.15E+00    1.8     0.00000106    -21748.8870590274 -4.68E-06
    24 OT DIIS     0.15E+00    1.8     0.00000105    -21748.8870631177 -4.09E-06
    25 OT DIIS     0.15E+00    1.8     0.00000105    -21748.8870672241 -4.11E-06
    26 OT DIIS     0.15E+00    1.8     0.00000103    -21748.8870742833 -7.06E-06
    27 OT DIIS     0.15E+00    1.7     0.00000101    -21748.8870884576 -1.42E-05
    28 OT DIIS     0.15E+00    1.7     0.00000100    -21748.8870984234 -9.97E-06

  *** SCF run converged in    28 steps ***


  Electronic density on regular grids:      -3270.0000000030       -0.0000000030
  Core density on regular grids:             3270.0000000001        0.0000000001
  Total charge density on r-space grids:       -0.0000000029
  Total charge density g-space grids:          -0.0000000029

  Overlap energy of the core charge distribution:               0.00000320215457
  Self energy of the core charge distribution:             -32992.00940381895634
  Core Hamiltonian energy:                                   7384.20705396708217
  Hartree energy:                                            6066.19587281493841
  Exchange-correlation energy:                              -2223.39296880561142
  Dispersion energy:                                           16.11234421699641

  Total energy:                                            -21748.88709842339449

  outer SCF iter =    2 RMS gradient =   0.10E-05 energy =     -21748.8870984234
  outer SCF loop converged in   2 iterations or   58 steps


 ENERGY| Total FORCE_EVAL ( QS ) energy [a.u.]:           -21748.887106082976970

 --------  Informations at step =     1 ------------
  Optimization Method        =                 BFGS
  Total Energy               =    -21748.8871060830
  Real energy change         =        -0.0309457101
  Predicted change in energy =        -0.0402523618
  Scaling factor             =         0.4106069763
  Step size                  =         0.1000000000
  Trust radius               =         0.1000000000
  Decrease in energy         =                  YES
  Used time                  =              109.915

  Convergence check :
  Max. step size             =         0.1000000000
  Conv. limit for step size  =         0.0200000000
  Convergence in step size   =                   NO
  RMS step size              =         0.0186863959
  Conv. limit for RMS step   =         0.0200000000
  Convergence in RMS step    =                  YES
  Max. gradient              =         0.0207000064
  Conv. limit for gradients  =         0.0030000000
  Conv. for gradients        =                   NO
  RMS gradient               =         0.0028514780
  Conv. limit for RMS grad.  =         0.0010000000
  Conv. for gradients        =                   NO
 ---------------------------------------------------
 Estimated peak process memory after this step [MiB]                         413

 --------------------------
 OPTIMIZATION STEP:      2
 --------------------------

  Step is scaled; Scaling factor =  0.50967

 Number of electrons:                                                       3270
 Number of occupied orbitals:                                               1635
 Number of molecular orbitals:                                              1635

 Number of orbital functions:                                               4788
 Number of independent orbital functions:                                   4788

 Extrapolation method: ASPC


 SCF WAVEFUNCTION OPTIMIZATION

  ----------------------------------- OT ---------------------------------------
  Minimizer      : DIIS                : direct inversion
                                         in the iterative subspace
                                         using   7 DIIS vectors
                                         safer DIIS on
  Preconditioner : FULL_KINETIC        : inversion of T + eS
  Precond_solver : DEFAULT
  stepsize       :    0.15000000                  energy_gap     :    0.20000000
  eps_taylor     :   0.10000E-15                  max_taylor     :             4
  ----------------------------------- OT ---------------------------------------

  Step     Update method      Time    Convergence         Total energy    Change
  ------------------------------------------------------------------------------
     1 OT DIIS     0.15E+00    1.6     0.00004853    -21748.8955569083 -2.17E+04
     2 OT DIIS     0.15E+00    1.7     0.00002967    -21748.8972303769 -1.67E-03
     3 OT DIIS     0.15E+00    1.8     0.00002366    -21748.8978103264 -5.80E-04
     4 OT DIIS     0.15E+00    1.8     0.00002061    -21748.8982770759 -4.67E-04
     5 OT DIIS     0.15E+00    1.7     0.00001442    -21748.8986845009 -4.07E-04
     6 OT DIIS     0.15E+00    1.7     0.00001189    -21748.8989474817 -2.63E-04
     7 OT DIIS     0.15E+00    1.7     0.00000910    -21748.8991592873 -2.12E-04
     8 OT DIIS     0.15E+00    1.8     0.00000794    -21748.8993512854 -1.92E-04
     9 OT DIIS     0.15E+00    1.8     0.00000650    -21748.8994906970 -1.39E-04
    10 OT DIIS     0.15E+00    1.8     0.00000584    -21748.8995952139 -1.05E-04
    11 OT DIIS     0.15E+00    1.8     0.00000520    -21748.8996803646 -8.52E-05
    12 OT DIIS     0.15E+00    1.8     0.00000465    -21748.8997723203 -9.20E-05
    13 OT DIIS     0.15E+00    1.8     0.00000419    -21748.8998387480 -6.64E-05
    14 OT DIIS     0.15E+00    1.8     0.00000391    -21748.8998936221 -5.49E-05
    15 OT DIIS     0.15E+00    1.8     0.00000365    -21748.8999396654 -4.60E-05
    16 OT DIIS     0.15E+00    1.8     0.00000335    -21748.8999896110 -4.99E-05
    17 OT DIIS     0.15E+00    1.7     0.00000310    -21748.9000302640 -4.07E-05
    18 OT DIIS     0.15E+00    1.8     0.00000291    -21748.9000635150 -3.33E-05
    19 OT DIIS     0.15E+00    1.8     0.00000274    -21748.9000927368 -2.92E-05
    20 OT DIIS     0.15E+00    1.8     0.00000258    -21748.9001206312 -2.79E-05
    21 OT DIIS     0.15E+00    1.7     0.00000245    -21748.9001459616 -2.53E-05
    22 OT DIIS     0.15E+00    1.8     0.00000232    -21748.9001692587 -2.33E-05
    23 OT DIIS     0.15E+00    1.8     0.00000221    -21748.9001927510 -2.35E-05
    24 OT DIIS     0.15E+00    1.8     0.00000211    -21748.9002127066 -2.00E-05
    25 OT DIIS     0.15E+00    1.7     0.00000205    -21748.9002287869 -1.61E-05
    26 OT DIIS     0.15E+00    1.8     0.00000197    -21748.9002432424 -1.45E-05
    27 OT DIIS     0.15E+00    1.8     0.00000190    -21748.9002584928 -1.53E-05
    28 OT DIIS     0.15E+00    1.7     0.00000183    -21748.9002737664 -1.53E-05
    29 OT DIIS     0.15E+00    1.7     0.00000177    -21748.9002875425 -1.38E-05
    30 OT DIIS     0.15E+00    1.8     0.00000172    -21748.9003002009 -1.27E-05

  Leaving inner SCF loop after reaching    30 steps.


  Electronic density on regular grids:      -3269.9999999990        0.0000000010
  Core density on regular grids:             3269.9999999999       -0.0000000001
  Total charge density on r-space grids:        0.0000000009
  Total charge density g-space grids:           0.0000000009

  Overlap energy of the core charge distribution:               0.00000295136607
  Self energy of the core charge distribution:             -32992.00940381895634
  Core Hamiltonian energy:                                   7383.79391181807296
  Hartree energy:                                            6066.45549290963663
  Exchange-correlation energy:                              -2223.26108240773101
  Dispersion energy:                                           16.12077834670262

  Total energy:                                            -21748.90030020090489

  outer SCF iter =    1 RMS gradient =   0.17E-05 energy =     -21748.9003002009

  ----------------------------------- OT ---------------------------------------
  Minimizer      : DIIS                : direct inversion
                                         in the iterative subspace
                                         using   7 DIIS vectors
                                         safer DIIS on
  Preconditioner : FULL_KINETIC        : inversion of T + eS
  Precond_solver : DEFAULT
  stepsize       :    0.15000000                  energy_gap     :    0.20000000
  eps_taylor     :   0.10000E-15                  max_taylor     :             4
  ----------------------------------- OT ---------------------------------------

  Step     Update method      Time    Convergence         Total energy    Change
  ------------------------------------------------------------------------------
     1 OT DIIS     0.15E+00    3.8     0.00000166    -21748.9003130000 -1.28E-05
     2 OT DIIS     0.15E+00    1.7     0.00000171    -21748.9003160034 -3.00E-06
     3 OT DIIS     0.15E+00    1.7     0.00000159    -21748.9003173010 -1.30E-06
     4 OT DIIS     0.15E+00    1.7     0.00000158    -21748.9003247647 -7.46E-06
     5 OT DIIS     0.15E+00    1.7     0.00000149    -21748.9003405872 -1.58E-05
     6 OT DIIS     0.15E+00    1.7     0.00000146    -21748.9003460358 -5.45E-06
     7 OT DIIS     0.15E+00    1.7     0.00000143    -21748.9003727143 -2.67E-05
     8 OT DIIS     0.15E+00    1.8     0.00000129    -21748.9004076879 -3.50E-05
     9 OT DIIS     0.15E+00    1.7     0.00000126    -21748.9004218101 -1.41E-05
    10 OT DIIS     0.15E+00    1.8     0.00000121    -21748.9004346096 -1.28E-05
    11 OT DIIS     0.15E+00    1.8     0.00000112    -21748.9004688757 -3.43E-05
    12 OT DIIS     0.15E+00    1.8     0.00000104    -21748.9004891686 -2.03E-05
    13 OT DIIS     0.15E+00    1.8     0.00000102    -21748.9004973362 -8.17E-06
    14 OT DIIS     0.15E+00    1.8     0.00000100    -21748.9005021192 -4.78E-06

  *** SCF run converged in    14 steps ***


  Electronic density on regular grids:      -3269.9999999990        0.0000000010
  Core density on regular grids:             3269.9999999999       -0.0000000001
  Total charge density on r-space grids:        0.0000000009
  Total charge density g-space grids:           0.0000000009

  Overlap energy of the core charge distribution:               0.00000295136607
  Self energy of the core charge distribution:             -32992.00940381895634
  Core Hamiltonian energy:                                   7383.79180825570438
  Hartree energy:                                            6066.45691709947641
  Exchange-correlation energy:                              -2223.26059129592204
  Dispersion energy:                                           16.12076468910274

  Total energy:                                            -21748.90050211922789

  outer SCF iter =    2 RMS gradient =   0.10E-05 energy =     -21748.9005021192
  outer SCF loop converged in   2 iterations or   44 steps


 ENERGY| Total FORCE_EVAL ( QS ) energy [a.u.]:           -21748.900508877999528

 --------  Informations at step =     2 ------------
  Optimization Method        =                 BFGS
  Total Energy               =    -21748.9005088780
  Real energy change         =        -0.0134027950
  Predicted change in energy =        -0.0146233546
  Scaling factor             =         0.5096726068
  Step size                  =         0.1000000000
  Trust radius               =         0.1000000000
  Decrease in energy         =                  YES
  Used time                  =               83.414

  Convergence check :
  Max. step size             =         0.1000000000
  Conv. limit for step size  =         0.0200000000
  Convergence in step size   =                   NO
  RMS step size              =         0.0149833644
  Conv. limit for RMS step   =         0.0200000000
  Convergence in RMS step    =                  YES
  Max. gradient              =         0.0156717169
  Conv. limit for gradients  =         0.0030000000
  Conv. for gradients        =                   NO
  RMS gradient               =         0.0021857810
  Conv. limit for RMS grad.  =         0.0010000000
  Conv. for gradients        =                   NO
 ---------------------------------------------------
 Estimated peak process memory after this step [MiB]                         417

 --------------------------
 OPTIMIZATION STEP:      3
 --------------------------

  Step is scaled; Scaling factor =  0.26729

 Number of electrons:                                                       3270
 Number of occupied orbitals:                                               1635
 Number of molecular orbitals:                                              1635

 Number of orbital functions:                                               4788
 Number of independent orbital functions:                                   4788

 Extrapolation method: ASPC


 SCF WAVEFUNCTION OPTIMIZATION

  ----------------------------------- OT ---------------------------------------
  Minimizer      : DIIS                : direct inversion
                                         in the iterative subspace
                                         using   7 DIIS vectors
                                         safer DIIS on
  Preconditioner : FULL_KINETIC        : inversion of T + eS
  Precond_solver : DEFAULT
  stepsize       :    0.15000000                  energy_gap     :    0.20000000
  eps_taylor     :   0.10000E-15                  max_taylor     :             4
  ----------------------------------- OT ---------------------------------------

  Step     Update method      Time    Convergence         Total energy    Change
  ------------------------------------------------------------------------------
     1 OT DIIS     0.15E+00    1.6     0.00004285    -21748.9068732938 -2.17E+04
     2 OT DIIS     0.15E+00    1.8     0.00002605    -21748.9082860732 -1.41E-03
     3 OT DIIS     0.15E+00    1.8     0.00002361    -21748.9087825457 -4.96E-04
     4 OT DIIS     0.15E+00    1.8     0.00001794    -21748.9091614790 -3.79E-04
     5 OT DIIS     0.15E+00    1.8     0.00001421    -21748.9095367391 -3.75E-04
     6 OT DIIS     0.15E+00    1.8     0.00001092    -21748.9097702789 -2.34E-04
     7 OT DIIS     0.15E+00    1.8     0.00000910    -21748.9099772214 -2.07E-04
     8 OT DIIS     0.15E+00    1.8     0.00000764    -21748.9101651109 -1.88E-04
     9 OT DIIS     0.15E+00    1.8     0.00000653    -21748.9103121547 -1.47E-04
    10 OT DIIS     0.15E+00    1.8     0.00000576    -21748.9104161068 -1.04E-04
    11 OT DIIS     0.15E+00    1.8     0.00000514    -21748.9105121366 -9.60E-05
    12 OT DIIS     0.15E+00    1.8     0.00000454    -21748.9105993185 -8.72E-05
    13 OT DIIS     0.15E+00    1.8     0.00000409    -21748.9106679649 -6.86E-05
    14 OT DIIS     0.15E+00    1.8     0.00000383    -21748.9107173261 -4.94E-05
    15 OT DIIS     0.15E+00    1.8     0.00000355    -21748.9107637802 -4.65E-05
    16 OT DIIS     0.15E+00    1.8     0.00000325    -21748.9108079259 -4.41E-05
    17 OT DIIS     0.15E+00    1.8     0.00000298    -21748.9108458843 -3.80E-05
    18 OT DIIS     0.15E+00    1.8     0.00000278    -21748.9108753058 -2.94E-05
    19 OT DIIS     0.15E+00    1.8     0.00000260    -21748.9109020272 -2.67E-05
    20 OT DIIS     0.15E+00    1.8     0.00000244    -21748.9109265201 -2.45E-05
    21 OT DIIS     0.15E+00    1.8     0.00000230    -21748.9109486879 -2.22E-05
    22 OT DIIS     0.15E+00    1.8     0.00000217    -21748.9109688330 -2.01E-05
    23 OT DIIS     0.15E+00    1.8     0.00000206    -21748.9109876087 -1.88E-05
    24 OT DIIS     0.15E+00    1.8     0.00000198    -21748.9110036431 -1.60E-05
    25 OT DIIS     0.15E+00    1.8     0.00000189    -21748.9110166859 -1.30E-05
    26 OT DIIS     0.15E+00    1.8     0.00000181    -21748.9110287853 -1.21E-05
    27 OT DIIS     0.15E+00    1.8     0.00000174    -21748.9110412275 -1.24E-05
    28 OT DIIS     0.15E+00    1.8     0.00000167    -21748.9110545989 -1.34E-05
    29 OT DIIS     0.15E+00    1.8     0.00000160    -21748.9110666867 -1.21E-05
    30 OT DIIS     0.15E+00    1.8     0.00000153    -21748.9110782058 -1.15E-05

  Leaving inner SCF loop after reaching    30 steps.


  Electronic density on regular grids:      -3270.0000000004       -0.0000000004
  Core density on regular grids:             3270.0000000000       -0.0000000000
  Total charge density on r-space grids:       -0.0000000004
  Total charge density g-space grids:          -0.0000000004

  Overlap energy of the core charge distribution:               0.00000268307821
  Self energy of the core charge distribution:             -32992.00940381895634
  Core Hamiltonian energy:                                   7383.40806909068488
  Hartree energy:                                            6066.71066774131759
  Exchange-correlation energy:                              -2223.14791375208779
  Dispersion energy:                                           16.12749985013161

  Total energy:                                            -21748.91107820583420

  outer SCF iter =    1 RMS gradient =   0.15E-05 energy =     -21748.9110782058

  ----------------------------------- OT ---------------------------------------
  Minimizer      : DIIS                : direct inversion
                                         in the iterative subspace
                                         using   7 DIIS vectors
                                         safer DIIS on
  Preconditioner : FULL_KINETIC        : inversion of T + eS
  Precond_solver : DEFAULT
  stepsize       :    0.15000000                  energy_gap     :    0.20000000
  eps_taylor     :   0.10000E-15                  max_taylor     :             4
  ----------------------------------- OT ---------------------------------------

  Step     Update method      Time    Convergence         Total energy    Change
  ------------------------------------------------------------------------------
     1 OT DIIS     0.15E+00    3.8     0.00000148    -21748.9110897101 -1.15E-05
     2 OT DIIS     0.15E+00    1.7     0.00000157    -21748.9110919981 -2.29E-06
     3 OT DIIS     0.15E+00    1.7     0.00000139    -21748.9110929993 -1.00E-06
     4 OT DIIS     0.15E+00    1.7     0.00000139    -21748.9110974215 -4.42E-06
     5 OT DIIS     0.15E+00    1.7     0.00000130    -21748.9111094706 -1.20E-05
     6 OT DIIS     0.15E+00    1.7     0.00000127    -21748.9111132576 -3.79E-06
     7 OT DIIS     0.15E+00    1.7     0.00000124    -21748.9111295949 -1.63E-05
     8 OT DIIS     0.15E+00    1.8     0.00000114    -21748.9111521548 -2.26E-05
     9 OT DIIS     0.15E+00    1.8     0.00000112    -21748.9111618136 -9.66E-06
    10 OT DIIS     0.15E+00    1.8     0.00000108    -21748.9111710162 -9.20E-06
    11 OT DIIS     0.15E+00    1.8     0.00000103    -21748.9111949673 -2.40E-05
    12 OT DIIS     0.15E+00    1.8     0.00000093    -21748.9112131984 -1.82E-05

  *** SCF run converged in    12 steps ***


  Electronic density on regular grids:      -3270.0000000004       -0.0000000004
  Core density on regular grids:             3270.0000000000       -0.0000000000
  Total charge density on r-space grids:       -0.0000000004
  Total charge density g-space grids:          -0.0000000004

  Overlap energy of the core charge distribution:               0.00000268307821
  Self energy of the core charge distribution:             -32992.00940381895634
  Core Hamiltonian energy:                                   7383.40924043507493
  Hartree energy:                                            6066.70972217885264
  Exchange-correlation energy:                              -2223.14828428473265
  Dispersion energy:                                           16.12750960825219

  Total energy:                                            -21748.91121319843296

  outer SCF iter =    2 RMS gradient =   0.93E-06 energy =     -21748.9112131984
  outer SCF loop converged in   2 iterations or   42 steps


 ENERGY| Total FORCE_EVAL ( QS ) energy [a.u.]:           -21748.911219094607077

 --------  Informations at step =     3 ------------
  Optimization Method        =                 BFGS
  Total Energy               =    -21748.9112190946
  Real energy change         =        -0.0107102166
  Predicted change in energy =        -0.0102027806
  Scaling factor             =         0.2672854764
  Step size                  =         0.1000000000
  Trust radius               =         0.1000000000
  Decrease in energy         =                  YES
  Used time                  =               80.449

  Convergence check :
  Max. step size             =         0.1000000000
  Conv. limit for step size  =         0.0200000000
  Convergence in step size   =                   NO
  RMS step size              =         0.0126508095
  Conv. limit for RMS step   =         0.0200000000
  Convergence in RMS step    =                  YES
  Max. gradient              =         0.0123780397
  Conv. limit for gradients  =         0.0030000000
  Conv. for gradients        =                   NO
  RMS gradient               =         0.0019123136
  Conv. limit for RMS grad.  =         0.0010000000
  Conv. for gradients        =                   NO
 ---------------------------------------------------
 Estimated peak process memory after this step [MiB]                         420

 --------------------------
 OPTIMIZATION STEP:      4
 --------------------------

  Step is scaled; Scaling factor =  0.19422

 Number of electrons:                                                       3270
 Number of occupied orbitals:                                               1635
 Number of molecular orbitals:                                              1635

 Number of orbital functions:                                               4788
 Number of independent orbital functions:                                   4788

 Extrapolation method: ASPC


 SCF WAVEFUNCTION OPTIMIZATION

  ----------------------------------- OT ---------------------------------------
  Minimizer      : DIIS                : direct inversion
                                         in the iterative subspace
                                         using   7 DIIS vectors
                                         safer DIIS on
  Preconditioner : FULL_KINETIC        : inversion of T + eS
  Precond_solver : DEFAULT
  stepsize       :    0.15000000                  energy_gap     :    0.20000000
  eps_taylor     :   0.10000E-15                  max_taylor     :             4
  ----------------------------------- OT ---------------------------------------

  Step     Update method      Time    Convergence         Total energy    Change
  ------------------------------------------------------------------------------
     1 OT DIIS     0.15E+00    1.6     0.00003207    -21748.9163329027 -2.17E+04
     2 OT DIIS     0.15E+00    1.8     0.00002062    -21748.9171457818 -8.13E-04
     3 OT DIIS     0.15E+00    1.7     0.00001936    -21748.9174448955 -2.99E-04
     4 OT DIIS     0.15E+00    1.8     0.00001431    -21748.9176946488 -2.50E-04
     5 OT DIIS     0.15E+00    1.8     0.00001137    -21748.9179244376 -2.30E-04
     6 OT DIIS     0.15E+00    1.8     0.00000876    -21748.9180861157 -1.62E-04
     7 OT DIIS     0.15E+00    1.8     0.00000735    -21748.9182232684 -1.37E-04
     8 OT DIIS     0.15E+00    1.8     0.00000621    -21748.9183515983 -1.28E-04
     9 OT DIIS     0.15E+00    1.8     0.00000529    -21748.9184489208 -9.73E-05
    10 OT DIIS     0.15E+00    1.8     0.00000469    -21748.9185205744 -7.17E-05
    11 OT DIIS     0.15E+00    1.8     0.00000420    -21748.9185834675 -6.29E-05
    12 OT DIIS     0.15E+00    1.7     0.00000372    -21748.9186438513 -6.04E-05
    13 OT DIIS     0.15E+00    1.8     0.00000339    -21748.9186885931 -4.47E-05
    14 OT DIIS     0.15E+00    1.8     0.00000318    -21748.9187219974 -3.34E-05
    15 OT DIIS     0.15E+00    1.8     0.00000295    -21748.9187528694 -3.09E-05
    16 OT DIIS     0.15E+00    1.7     0.00000270    -21748.9187838535 -3.10E-05
    17 OT DIIS     0.15E+00    1.7     0.00000249    -21748.9188098385 -2.60E-05
    18 OT DIIS     0.15E+00    1.8     0.00000234    -21748.9188303649 -2.05E-05
    19 OT DIIS     0.15E+00    1.8     0.00000220    -21748.9188490662 -1.87E-05
    20 OT DIIS     0.15E+00    1.8     0.00000208    -21748.9188669883 -1.79E-05
    21 OT DIIS     0.15E+00    1.8     0.00000197    -21748.9188835738 -1.66E-05
    22 OT DIIS     0.15E+00    1.8     0.00000187    -21748.9188989178 -1.53E-05
    23 OT DIIS     0.15E+00    1.8     0.00000180    -21748.9189128787 -1.40E-05
    24 OT DIIS     0.15E+00    1.8     0.00000173    -21748.9189251015 -1.22E-05
    25 OT DIIS     0.15E+00    1.8     0.00000165    -21748.9189357394 -1.06E-05
    26 OT DIIS     0.15E+00    1.8     0.00000159    -21748.9189455335 -9.79E-06
    27 OT DIIS     0.15E+00    1.8     0.00000153    -21748.9189555060 -9.97E-06
    28 OT DIIS     0.15E+00    1.8     0.00000148    -21748.9189667721 -1.13E-05
    29 OT DIIS     0.15E+00    1.8     0.00000142    -21748.9189772808 -1.05E-05
    30 OT DIIS     0.15E+00    1.7     0.00000136    -21748.9189878501 -1.06E-05

  Leaving inner SCF loop after reaching    30 steps.


  Electronic density on regular grids:      -3269.9999999989        0.0000000011
  Core density on regular grids:             3269.9999999999       -0.0000000001
  Total charge density on r-space grids:        0.0000000010
  Total charge density g-space grids:           0.0000000010

  Overlap energy of the core charge distribution:               0.00000242592353
  Self energy of the core charge distribution:             -32992.00940381895634
  Core Hamiltonian energy:                                   7383.05520529350360
  Hartree energy:                                            6066.94141702149864
  Exchange-correlation energy:                              -2223.04038132237110
  Dispersion energy:                                           16.13417255034334

  Total energy:                                            -21748.91898785006197

  outer SCF iter =    1 RMS gradient =   0.14E-05 energy =     -21748.9189878501

  ----------------------------------- OT ---------------------------------------
  Minimizer      : DIIS                : direct inversion
                                         in the iterative subspace
                                         using   7 DIIS vectors
                                         safer DIIS on
  Preconditioner : FULL_KINETIC        : inversion of T + eS
  Precond_solver : DEFAULT
  stepsize       :    0.15000000                  energy_gap     :    0.20000000
  eps_taylor     :   0.10000E-15                  max_taylor     :             4
  ----------------------------------- OT ---------------------------------------

  Step     Update method      Time    Convergence         Total energy    Change
  ------------------------------------------------------------------------------
     1 OT DIIS     0.15E+00    3.8     0.00000133    -21748.9189978604 -1.00E-05
     2 OT DIIS     0.15E+00    1.7     0.00000146    -21748.9189996594 -1.80E-06
     3 OT DIIS     0.15E+00    1.7     0.00000125    -21748.9190004237 -7.64E-07
     4 OT DIIS     0.15E+00    1.7     0.00000124    -21748.9190033743 -2.95E-06
     5 OT DIIS     0.15E+00    1.7     0.00000118    -21748.9190130547 -9.68E-06
     6 OT DIIS     0.15E+00    1.7     0.00000116    -21748.9190161233 -3.07E-06
     7 OT DIIS     0.15E+00    1.7     0.00000113    -21748.9190294005 -1.33E-05
     8 OT DIIS     0.15E+00    1.8     0.00000107    -21748.9190470519 -1.77E-05
     9 OT DIIS     0.15E+00    1.8     0.00000105    -21748.9190554715 -8.42E-06
    10 OT DIIS     0.15E+00    1.8     0.00000103    -21748.9190640654 -8.59E-06
    11 OT DIIS     0.15E+00    1.8     0.00000101    -21748.9190864141 -2.23E-05
    12 OT DIIS     0.15E+00    1.8     0.00000090    -21748.9191090036 -2.26E-05

  *** SCF run converged in    12 steps ***


  Electronic density on regular grids:      -3269.9999999989        0.0000000011
  Core density on regular grids:             3269.9999999999       -0.0000000001
  Total charge density on r-space grids:        0.0000000010
  Total charge density g-space grids:           0.0000000010

  Overlap energy of the core charge distribution:               0.00000242592353
  Self energy of the core charge distribution:             -32992.00940381895634
  Core Hamiltonian energy:                                   7383.05502884520683
  Hartree energy:                                            6066.94147420408262
  Exchange-correlation energy:                              -2223.04038579439293
  Dispersion energy:                                           16.13417513454956

  Total energy:                                            -21748.91910900358926

  outer SCF iter =    2 RMS gradient =   0.90E-06 energy =     -21748.9191090036
  outer SCF loop converged in   2 iterations or   42 steps


 ENERGY| Total FORCE_EVAL ( QS ) energy [a.u.]:           -21748.919116712939285

 --------  Informations at step =     4 ------------
  Optimization Method        =                 BFGS
  Total Energy               =    -21748.9191167129
  Real energy change         =        -0.0078976183
  Predicted change in energy =        -0.0086044341
  Scaling factor             =         0.1942241646
  Step size                  =         0.1000000000
  Trust radius               =         0.1000000000
  Decrease in energy         =                  YES
  Used time                  =               80.446

  Convergence check :
  Max. step size             =         0.1000000000
  Conv. limit for step size  =         0.0200000000
  Convergence in step size   =                   NO
  RMS step size              =         0.0125138075
  Conv. limit for RMS step   =         0.0200000000
  Convergence in RMS step    =                  YES
  Max. gradient              =         0.0121296739
  Conv. limit for gradients  =         0.0030000000
  Conv. for gradients        =                   NO
  RMS gradient               =         0.0018027580
  Conv. limit for RMS grad.  =         0.0010000000
  Conv. for gradients        =                   NO
 ---------------------------------------------------
 Estimated peak process memory after this step [MiB]                         422

 --------------------------
 OPTIMIZATION STEP:      5
 --------------------------

  Step is scaled; Scaling factor =  0.25740

 Number of electrons:                                                       3270
 Number of occupied orbitals:                                               1635
 Number of molecular orbitals:                                              1635

 Number of orbital functions:                                               4788
 Number of independent orbital functions:                                   4788

 Extrapolation method: ASPC


 SCF WAVEFUNCTION OPTIMIZATION

  ----------------------------------- OT ---------------------------------------
  Minimizer      : DIIS                : direct inversion
                                         in the iterative subspace
                                         using   7 DIIS vectors
                                         safer DIIS on
  Preconditioner : FULL_KINETIC        : inversion of T + eS
  Precond_solver : DEFAULT
  stepsize       :    0.15000000                  energy_gap     :    0.20000000
  eps_taylor     :   0.10000E-15                  max_taylor     :             4
  ----------------------------------- OT ---------------------------------------

  Step     Update method      Time    Convergence         Total energy    Change
  ------------------------------------------------------------------------------
     1 OT DIIS     0.15E+00    1.6     0.00003091    -21748.9210387546 -2.17E+04
     2 OT DIIS     0.15E+00    1.8     0.00002220    -21748.9217668348 -7.28E-04
     3 OT DIIS     0.15E+00    1.8     0.00002028    -21748.9220249046 -2.58E-04
     4 OT DIIS     0.15E+00    1.8     0.00001445    -21748.9223006568 -2.76E-04
     5 OT DIIS     0.15E+00    1.8     0.00001157    -21748.9225178583 -2.17E-04
     6 OT DIIS     0.15E+00    1.8     0.00000864    -21748.9227002930 -1.82E-04
     7 OT DIIS     0.15E+00    1.8     0.00000740    -21748.9228370650 -1.37E-04
     8 OT DIIS     0.15E+00    1.8     0.00000631    -21748.9229632446 -1.26E-04
     9 OT DIIS     0.15E+00    1.8     0.00000533    -21748.9230665970 -1.03E-04
    10 OT DIIS     0.15E+00    1.8     0.00000474    -21748.9231417207 -7.51E-05
    11 OT DIIS     0.15E+00    1.8     0.00000426    -21748.9232057357 -6.40E-05
    12 OT DIIS     0.15E+00    1.8     0.00000380    -21748.9232670199 -6.13E-05
    13 OT DIIS     0.15E+00    1.8     0.00000347    -21748.9233133235 -4.63E-05
    14 OT DIIS     0.15E+00    1.8     0.00000327    -21748.9233480645 -3.47E-05
    15 OT DIIS     0.15E+00    1.8     0.00000302    -21748.9233797957 -3.17E-05
    16 OT DIIS     0.15E+00    1.8     0.00000277    -21748.9234133906 -3.36E-05
    17 OT DIIS     0.15E+00    1.8     0.00000258    -21748.9234418958 -2.85E-05
    18 OT DIIS     0.15E+00    1.8     0.00000242    -21748.9234634724 -2.16E-05
    19 OT DIIS     0.15E+00    1.8     0.00000228    -21748.9234838578 -2.04E-05
    20 OT DIIS     0.15E+00    1.8     0.00000216    -21748.9235033319 -1.95E-05
    21 OT DIIS     0.15E+00    1.8     0.00000205    -21748.9235217908 -1.85E-05
    22 OT DIIS     0.15E+00    1.8     0.00000195    -21748.9235388214 -1.70E-05
    23 OT DIIS     0.15E+00    1.8     0.00000189    -21748.9235540876 -1.53E-05
    24 OT DIIS     0.15E+00    1.8     0.00000180    -21748.9235677152 -1.36E-05
    25 OT DIIS     0.15E+00    1.8     0.00000172    -21748.9235802889 -1.26E-05
    26 OT DIIS     0.15E+00    1.8     0.00000167    -21748.9235912875 -1.10E-05
    27 OT DIIS     0.15E+00    1.8     0.00000160    -21748.9236024126 -1.11E-05
    28 OT DIIS     0.15E+00    1.8     0.00000154    -21748.9236151512 -1.27E-05
    29 OT DIIS     0.15E+00    1.8     0.00000148    -21748.9236271866 -1.20E-05
    30 OT DIIS     0.15E+00    1.8     0.00000143    -21748.9236390831 -1.19E-05

  Leaving inner SCF loop after reaching    30 steps.


  Electronic density on regular grids:      -3270.0000000026       -0.0000000026
  Core density on regular grids:             3270.0000000001        0.0000000001
  Total charge density on r-space grids:       -0.0000000025
  Total charge density g-space grids:          -0.0000000025

  Overlap energy of the core charge distribution:               0.00000222870797
  Self energy of the core charge distribution:             -32992.00940381895634
  Core Hamiltonian energy:                                   7382.77072233556737
  Hartree energy:                                            6067.12533944915049
  Exchange-correlation energy:                              -2222.95021761031057
  Dispersion energy:                                           16.13991833277068

  Total energy:                                            -21748.92363908307379

  outer SCF iter =    1 RMS gradient =   0.14E-05 energy =     -21748.9236390831

  ----------------------------------- OT ---------------------------------------
  Minimizer      : DIIS                : direct inversion
                                         in the iterative subspace
                                         using   7 DIIS vectors
                                         safer DIIS on
  Preconditioner : FULL_KINETIC        : inversion of T + eS
  Precond_solver : DEFAULT
  stepsize       :    0.15000000                  energy_gap     :    0.20000000
  eps_taylor     :   0.10000E-15                  max_taylor     :             4
  ----------------------------------- OT ---------------------------------------

  Step     Update method      Time    Convergence         Total energy    Change
  ------------------------------------------------------------------------------
     1 OT DIIS     0.15E+00    3.8     0.00000140    -21748.9236502939 -1.12E-05
     2 OT DIIS     0.15E+00    1.7     0.00000158    -21748.9236522374 -1.94E-06
     3 OT DIIS     0.15E+00    1.7     0.00000130    -21748.9236530653 -8.28E-07
     4 OT DIIS     0.15E+00    1.7     0.00000129    -21748.9236565084 -3.44E-06
     5 OT DIIS     0.15E+00    1.7     0.00000123    -21748.9236672348 -1.07E-05
     6 OT DIIS     0.15E+00    1.7     0.00000121    -21748.9236702969 -3.06E-06
     7 OT DIIS     0.15E+00    1.7     0.00000118    -21748.9236852211 -1.49E-05
     8 OT DIIS     0.15E+00    1.7     0.00000113    -21748.9237035993 -1.84E-05
     9 OT DIIS     0.15E+00    1.7     0.00000112    -21748.9237122462 -8.65E-06
    10 OT DIIS     0.15E+00    1.8     0.00000108    -21748.9237212327 -8.99E-06
    11 OT DIIS     0.15E+00    1.8     0.00000105    -21748.9237470310 -2.58E-05
    12 OT DIIS     0.15E+00    1.8     0.00000095    -21748.9237727848 -2.58E-05

  *** SCF run converged in    12 steps ***


  Electronic density on regular grids:      -3270.0000000026       -0.0000000026
  Core density on regular grids:             3270.0000000001        0.0000000001
  Total charge density on r-space grids:       -0.0000000025
  Total charge density g-space grids:          -0.0000000025

  Overlap energy of the core charge distribution:               0.00000222870797
  Self energy of the core charge distribution:             -32992.00940381895634
  Core Hamiltonian energy:                                   7382.77061848591075
  Hartree energy:                                            6067.12529702628763
  Exchange-correlation energy:                              -2222.95020299799489
  Dispersion energy:                                           16.13991629121153

  Total energy:                                            -21748.92377278483400

  outer SCF iter =    2 RMS gradient =   0.95E-06 energy =     -21748.9237727848
  outer SCF loop converged in   2 iterations or   42 steps


 ENERGY| Total FORCE_EVAL ( QS ) energy [a.u.]:           -21748.923782612153445

 --------  Informations at step =     5 ------------
  Optimization Method        =                 BFGS
  Total Energy               =    -21748.9237826122
  Real energy change         =        -0.0046658992
  Predicted change in energy =        -0.0059500803
  Scaling factor             =         0.2573965904
  Step size                  =         0.1000000000
  Trust radius               =         0.1000000000
  Decrease in energy         =                  YES
  Used time                  =               80.807

  Convergence check :
  Max. step size             =         0.1000000000
  Conv. limit for step size  =         0.0200000000
  Convergence in step size   =                   NO
  RMS step size              =         0.0111441775
  Conv. limit for RMS step   =         0.0200000000
  Convergence in RMS step    =                  YES
  Max. gradient              =         0.0121045522
  Conv. limit for gradients  =         0.0030000000
  Conv. for gradients        =                   NO
  RMS gradient               =         0.0017955284
  Conv. limit for RMS grad.  =         0.0010000000
  Conv. for gradients        =                   NO
 ---------------------------------------------------
 Estimated peak process memory after this step [MiB]                         423

 --------------------------
 OPTIMIZATION STEP:      6
 --------------------------

  Step is scaled; Scaling factor =  0.41866

 Number of electrons:                                                       3270
 Number of occupied orbitals:                                               1635
 Number of molecular orbitals:                                              1635

 Number of orbital functions:                                               4788
 Number of independent orbital functions:                                   4788

 Extrapolation method: ASPC


 SCF WAVEFUNCTION OPTIMIZATION

  ----------------------------------- OT ---------------------------------------
  Minimizer      : DIIS                : direct inversion
                                         in the iterative subspace
                                         using   7 DIIS vectors
                                         safer DIIS on
  Preconditioner : FULL_KINETIC        : inversion of T + eS
  Precond_solver : DEFAULT
  stepsize       :    0.15000000                  energy_gap     :    0.20000000
  eps_taylor     :   0.10000E-15                  max_taylor     :             4
  ----------------------------------- OT ---------------------------------------

  Step     Update method      Time    Convergence         Total energy    Change
  ------------------------------------------------------------------------------
     1 OT DIIS     0.15E+00    1.6     0.00002785    -21748.9252507072 -2.17E+04
     2 OT DIIS     0.15E+00    1.7     0.00001998    -21748.9258487864 -5.98E-04
     3 OT DIIS     0.15E+00    1.8     0.00001826    -21748.9260624915 -2.14E-04
     4 OT DIIS     0.15E+00    1.8     0.00001305    -21748.9262920734 -2.30E-04
     5 OT DIIS     0.15E+00    1.8     0.00001031    -21748.9264620885 -1.70E-04
     6 OT DIIS     0.15E+00    1.8     0.00000771    -21748.9266064276 -1.44E-04
     7 OT DIIS     0.15E+00    1.8     0.00000662    -21748.9267139493 -1.08E-04
     8 OT DIIS     0.15E+00    1.8     0.00000566    -21748.9268096840 -9.57E-05
     9 OT DIIS     0.15E+00    1.8     0.00000481    -21748.9268907982 -8.11E-05
    10 OT DIIS     0.15E+00    1.8     0.00000431    -21748.9269521025 -6.13E-05
    11 OT DIIS     0.15E+00    1.8     0.00000390    -21748.9270056528 -5.36E-05
    12 OT DIIS     0.15E+00    1.8     0.00000352    -21748.9270564706 -5.08E-05
    13 OT DIIS     0.15E+00    1.8     0.00000324    -21748.9270964824 -4.00E-05
    14 OT DIIS     0.15E+00    1.8     0.00000307    -21748.9271276075 -3.11E-05
[...]
 flops   128 x    96 x   299       17041942315008       0.0%    100.0%      0.0%
 flops   291 x    96 x   291       19828133379072       0.0%    100.0%      0.0%
 flops   291 x    96 x   299       20373236702208       0.0%    100.0%      0.0%
 flops   299 x    96 x   291       20373236702208       0.0%    100.0%      0.0%
 flops   291 x   128 x    96       20603862908928       0.0%    100.0%      0.0%
 flops   291 x    96 x   128       20603862908928       0.0%    100.0%      0.0%
 flops   299 x    96 x   299       20933325683712       0.0%    100.0%      0.0%
 flops   299 x    96 x   128       21170292129792       0.0%    100.0%      0.0%
 flops   299 x   128 x    96       21170292129792       0.0%    100.0%      0.0%
 flops    26 x    26 x   128       23604175595520       0.0%    100.0%      0.0%
 flops    96 x    96 x   312       35565792657408       0.0%    100.0%      0.0%
 flops    96 x    96 x    96       42638896005120       0.0%    100.0%      0.0%
 flops   312 x    96 x    96       44181479227392       0.0%    100.0%      0.0%
 flops    96 x    96 x   291       49757911842816       0.0%    100.0%      0.0%
 flops    96 x    96 x   299       51125826945024       0.0%    100.0%      0.0%
 flops   291 x    96 x    96       61811588726784       0.0%    100.0%      0.0%
 flops   299 x    96 x    96       63510876389376       0.0%    100.0%      0.0%
 flops    26 x    26 x    96       70812526786560       0.0%    100.0%      0.0%
 flops    26 x    32 x    26      416854887321600       0.0%    100.0%      0.0%
 flops inhomo. stacks                           0       0.0%      0.0%      0.0%
 flops total                         1.492163E+15       0.0%    100.0%      0.0%
 flops max/rank                      7.715484E+12       0.0%    100.0%      0.0%
 matmuls inhomo. stacks                         0       0.0%      0.0%      0.0%
 matmuls total                        12173394688       0.0%    100.0%      0.0%
 number of processed stacks             275516724       0.0%    100.0%      0.0%
 average stack size                                     0.0      44.2       0.0
 marketing flops                     1.601939E+15
 -------------------------------------------------------------------------------
 # multiplications                          49687
 max memory usage/rank             452.145152E+06
 # max total images/rank                        1
 # max 3D layers                                1
 # MPI messages exchanged               381596160
 MPI messages size (bytes):
  total size                        83.141432E+12
  min size                           0.000000E+00
  max size                         778.752000E+03
  average size                     217.878062E+03
 MPI breakdown and total messages size (bytes):
             size <=      128             1252080                        0
       128 < size <=     8192                   0                        0
      8192 < size <=    32768               26640                695743560
     32768 < size <=   131072           158315520           13225406436000
    131072 < size <=  4194304           222001920           69987335735520
   4194304 < size <= 16777216                   0                        0
  16777216 < size                               0                        0
 -------------------------------------------------------------------------------
 -                                                                             -
 -                      DBCSR MESSAGE PASSING PERFORMANCE                      -
 -                                                                             -
 -------------------------------------------------------------------------------
 ROUTINE             CALLS      AVE VOLUME [Bytes]
 MP_Bcast              160                     12.
 MP_Allreduce       270003                      8.
 MP_Alltoall        151955                  89538.
 MP_ISend          3179524                 114194.
 MP_IRecv          3179524                 113322.
 -------------------------------------------------------------------------------

 -------------------------------------------------------------------------------
 -                                                                             -
 -                                DBM STATISTICS                               -
 -                                                                             -
 -------------------------------------------------------------------------------
    M  x    N  x    K                                          COUNT     PERCENT
 -------------------------------------------------------------------------------

 -------------------------------------------------------------------------------
 -                                                                             -
 -                                GRID STATISTICS                              -
 -                                                                             -
 -------------------------------------------------------------------------------
 LP    KERNEL             BACKEND                              COUNT     PERCENT
 6     collocate general  REF                              715754915      40.63%
 6     integrate general  REF                              706363324      40.10%
 4     collocate general  REF                               79779437       4.53%
 4     integrate general  REF                               78725760       4.47%
 5     integrate general  REF                               71486238       4.06%
 5     collocate general  REF                               71392074       4.05%
 7     integrate general  REF                               10143519       0.58%
 3     collocate general  REF                                7555511       0.43%
 3     integrate general  REF                                7509562       0.43%
 2     collocate general  REF                                4512484       0.26%
 2     integrate general  REF                                4446952       0.25%
 0     collocate general  REF                                1966080       0.11%
 1     integrate general  REF                                1916928       0.11%
 -------------------------------------------------------------------------------

 MEMORY| Estimated peak process memory [MiB]                                 432

 -------------------------------------------------------------------------------
 -                                                                             -
 -                         MESSAGE PASSING PERFORMANCE                         -
 -                                                                             -
 -------------------------------------------------------------------------------

 ROUTINE             CALLS      AVE VOLUME [Bytes]
 MP_Group                5
 MP_Bcast            14005                  51842.
 MP_Allreduce        39997                    373.
 MP_Sync             44157
 MP_Alltoall        374908              286092484.
 MP_ISendRecv      4209795                   6632.
 MP_Wait           4536131
 MP_comm_split          64
 MP_ISend          1085214                 101344.
 MP_IRecv          1085496                 101318.
 MP_Recv              2686                 966397.
 -------------------------------------------------------------------------------


 -------------------------------------------------------------------------------
 -                                                                             -
 -                           R E F E R E N C E S                               -
 -                                                                             -
 -------------------------------------------------------------------------------
 
 CP2K version 2022.1 (Development Version), the CP2K developers group (2022).
 CP2K is freely available from https://www.cp2k.org/ .

 Kuehne,Thomas D.; Iannuzzi,Marcella; Del Ben,Mauro;
 Rybkin,Vladimir V.; Seewald,Patrick; Stein,Frederick; Laino,Teodoro;
 Khaliullin,Rustam Z.; Schuett,Ole; Schiffmann,Florian; Golze,Dorothea;
 Wilhelm,Jan; Chulkov,Sergey; Bani-Hashemian,Mohammad Hossein;
 Weber,Valery; Borstnik,Urban; Taillefumier,Mathieu;
 Jakobovits,Alice Shoshana; Lazzaro,Alfio; Pabst,Hans; Mueller,Tiziano;
 Schade,Robert; Guidon,Manuel; Andermatt,Samuel; Holmberg,Nico;
 Schenter,Gregory K.; Hehn,Anna; Bussy,Augustin; Belleflamme,Fabian;
 Tabacchi,Gloria; Gloess,Andreas; Lass,Michael; Bethune,Iain;
 Mundy,Christopher J.; Plessl,Christian; Watkins,Matt;
 VandeVondele,Joost; Krack,Matthias; Hutter,Juerg. 
 The Journal of Chemical Physics, 152 (19), (2020). 
 CP2K: An electronic structure and molecular dynamics software package -
 Quickstep: Efficient and accurate electronic structure calculations.
 https://doi.org/10.1063/5.0007045

 Lehtola, S; Steigemann, C; Oliveira, MJT; Marques, MAL. 
 SoftwareX, 7, 1-5 (2018). 
 Recent developments in libxc - A comprehensive library of functionals
 for density functional theory.
 https://doi.org/10.1016/j.softx.2017.11.002

 Schuett, Ole; Messmer, Peter; Hutter, Juerg; VandeVondele, Joost. 
 Electronic Structure Calculations on Graphics Processing Units, John
 Wiley & Sons, Ltd, 173-190 (2016). 
 GPU-Accelerated Sparse Matrix-Matrix Multiplication for
 Linear Scaling Density Functional Theory.
 https://doi.org/10.1002/9781118670712.ch8

 Heinecke, A; Henry, G; Hutchinson, M; Pabst, H. 
 Proceedings of Intl. Supercomputing Conference, 981-991 (2016). 
 LIBXSMM: Accelerating Small Matrix Multiplications
 by Runtime Code Generation.
 https://doi.org/10.1109/SC.2016.83

 Borstnik, U; VandeVondele, J; Weber, V; Hutter, J. 
 PARALLEL COMPUTING, 40 (5-6), 47-58 (2014). 
 Sparse matrix multiplication: The distributed block-compressed sparse
 row library.
 https://doi.org/10.1016/j.parco.2014.03.012

 Hutter, J; Iannuzzi, M; Schiffmann, F; VandeVondele, J. 
 WIREs Comput Mol Sci., 4 (1), 15-25 (2014). 
 CP2K: atomistic simulations of condensed matter systems.
 https://doi.org/10.1002/wcms.1159

 Marek, A; Blum, V; Johanni, R; Havu, V; Lang, B; Auckenthaler, T;
 Heinecke, A; Bungartz, H; Lederer, H. 
 Journal of Physics: Condensed Matter, 26 (21), (2014). 
 The ELPA library: scalable parallel eigenvalue solutions for
 electronic structure
 theory and computational science.
 https://doi.org/10.1088/0953-8984/26/21/213201

 Marques, MAL; Oliveira, MJT; Burnus, T. 
 COMPUTER PHYSICS COMMUNICATIONS, 183 (10), 2272-2281 (2012). 
 LIBXC: A library of exchange and correlation functionals for density
 functional theory.
 https://doi.org/10.1016/j.cpc.2012.05.007

 Wellendorff, J; Lundgaard, K; Mogelhoj, A; Petzold, V; Landis, D;
 Norskov, J; Bligaard, T; Jacobsen, K. 
 PHYSICAL REVIEW B, 85 (23), 235149 (2012). 
 Density functionals for surface science: Exchange-correlation model development with Bayesian error estimation.
 https://doi.org/10.1103/PhysRevB.85.235149

 Roman-Perez, G; Soler, JM. 
 Phys. Rev. Lett., 103 (9), 096102 (2009). 
 Efficient Implementation of a van der Waals Density Functional:
 Application to Double-Wall Carbon Nanotubes.
 https://doi.org/10.1103/PhysRevLett.103.096102

 VandeVondele, J; Hutter, J. 
 JOURNAL OF CHEMICAL PHYSICS, 127 (11), 114105 (2007). 
 Gaussian basis sets for accurate calculations on molecular systems in
 gas and condensed phases.
 https://doi.org/10.1063/1.2770708

 Kuhne, TD; Krack, M; Mohamed, FR; Parrinello, M. 
 PHYSICAL REVIEW LETTERS, 98 (6), 066401 (2007). 
 Efficient and accurate Car-Parrinello-like approach to
 Born-Oppenheimer molecular dynamics.
 https://doi.org/10.1103/PhysRevLett.98.066401

 Krack, M. 
 THEORETICAL CHEMISTRY ACCOUNTS, 114 (1-3), 145-152 (2005). 
 Pseudopotentials for H to Kr optimized for gradient-corrected
 exchange-correlation functionals.
 https://doi.org/10.1007/s00214-005-0655-y

 VandeVondele, J; Krack, M; Mohamed, F; Parrinello, M; Chassaing, T;
 Hutter, J. COMPUTER PHYSICS COMMUNICATIONS, 167 (2), 103-128 (2005). 
 QUICKSTEP: Fast and accurate density functional calculations using a
 mixed Gaussian and plane waves approach.
 https://doi.org/10.1016/j.cpc.2004.12.014

 Frigo, M; Johnson, SG. 
 PROCEEDINGS OF THE IEEE, 93 (2), 216-231 (2005). 
 The design and implementation of FFTW3.
 https://doi.org/10.1109/JPROC.2004.840301

 Dion, M; Rydberg, H; Schroder, E; Langreth, DC; Lundqvist, BI. 
 Phys. Rev. Lett., 92 (24), 246401 (2004). 
 Van der Waals density functional for general geometries.
 https://doi.org/10.1103/PhysRevLett.92.246401

 Kolafa, J. 
 JOURNAL OF COMPUTATIONAL CHEMISTRY, 25 (3), 335-342 (2004). 
 Time-reversible always stable predictor-corrector method for
 molecular dynamics of polarizable molecules.
 https://doi.org/10.1002/jcc.10385

 VandeVondele, J; Hutter, J. 
 JOURNAL OF CHEMICAL PHYSICS, 118 (10), 4365-4369 (2003). 
 An efficient orbital transformation method for electronic structure
 calculations.
 https://doi.org/10.1063/1.1543154

 Hartwigsen, C; Goedecker, S; Hutter, J. 
 PHYSICAL REVIEW B, 58 (7), 3641-3662 (1998). 
 Relativistic separable dual-space Gaussian pseudopotentials from H to Rn.
 https://doi.org/10.1103/PhysRevB.58.3641

 Lippert, G; Hutter, J; Parrinello, M. 
 MOLECULAR PHYSICS, 92 (3), 477-487 (1997). 
 A hybrid Gaussian and plane wave density functional scheme.
 https://doi.org/10.1080/002689797170220

 Perdew, JP; Burke, K; Ernzerhof, M. 
 PHYSICAL REVIEW LETTERS, 77 (18), 3865-3868 (1996). 
 Generalized gradient approximation made simple.
 https://doi.org/10.1103/PhysRevLett.77.3865

 Goedecker, S; Teter, M; Hutter, J. 
 PHYSICAL REVIEW B, 54 (3), 1703-1710 (1996). 
 Separable dual-space Gaussian pseudopotentials.
 https://doi.org/10.1103/PhysRevB.54.1703


 -------------------------------------------------------------------------------
 -                                                                             -
 -                                T I M I N G                                  -
 -                                                                             -
 -------------------------------------------------------------------------------
 SUBROUTINE                       CALLS  ASD         SELF TIME        TOTAL TIME
                                MAXIMUM       AVERAGE  MAXIMUM  AVERAGE  MAXIMUM
 CP2K                                 1  1.0    0.015    0.034 5071.797 5071.825
 cp_geo_opt                           1  2.0    0.000    0.001 5056.775 5056.803
 geoopt_bfgs                          1  3.0    0.016    0.022 5056.775 5056.803
 cp_eval_at                          40  4.0    0.007    0.009 5050.538 5050.569
 qs_forces                           39  5.0    0.008    0.012 4923.790 4923.816
 qs_energies                         40  6.0    0.034    0.066 4880.699 4880.785
 scf_env_do_scf                      40  7.0    0.006    0.017 4818.359 4818.390
 scf_env_do_scf_inner_loop         2712  8.0    0.069    0.242 4658.419 4661.209
 rebuild_ks_matrix                 2751  9.9    0.018    0.029 3120.544 3133.644
 qs_ks_build_kohn_sham_matrix      2751 10.9    0.439    0.521 3120.526 3133.629
 qs_ks_update_qs_env               2823  9.0    0.047    0.062 3066.695 3079.582
 qs_vxc_create                     2751 11.9    0.133    0.160 1698.115 1698.903
 calculate_dispersion_nonloc       2751 12.9   76.874   89.645 1458.398 1459.528
 pw_transfer                     214624 14.0   17.040   24.717 1401.602 1437.751
 fft_wrap_pw1pw2                 195367 15.0    2.586    3.634 1372.145 1408.754
 fft_wrap_pw1pw2_150             173355 16.1   75.742   84.377 1338.587 1373.692
 sum_up_and_integrate              2751 11.9    0.780    0.942 1317.825 1321.976
 integrate_v_rspace                2751 12.9    0.090    0.144 1317.037 1321.297
 fft3d_pb                        173355 17.1  298.629  362.626 1143.863 1198.015
 qs_rho_update_rho_low             2752  9.0    0.026    0.034 1078.372 1082.435
 calculate_rho_elec                2752 10.0    0.505    0.535 1078.345 1082.416
 rs_pw_transfer                   27594 13.4    0.401    0.537  802.481 1030.717
 grid_integrate_task_list          2751 13.9  582.732  888.049  582.732  888.049
 mp_alltoall_z22v                368722 19.0  719.327  870.158  719.327  870.158
 grid_collocate_task_list          2752 11.0  566.491  804.827  566.491  804.827
 mp_waitany                      210378 15.4  434.826  728.748  434.826  728.748
 density_rs2pw                     2752 11.0    0.123    0.158  486.238  718.376
 dbcsr_multiply_generic           49687 14.0    1.973    2.176  666.912  700.392
 qs_scf_new_mos                    2712  9.0    0.017    0.023  650.365  657.227
 qs_scf_loop_do_ot                 2712 10.0    0.015    0.022  650.348  657.209
 mp_alltoall_d11v                 28801 15.6  352.712  619.703  352.712  619.703
 ot_scf_mini                       2712 11.0    0.074    0.093  603.956  611.224
 rs_gather_matrices                2751 13.9    1.446    2.101  327.559  593.029
 multiply_cannon                  49687 15.0    3.524    4.558  484.236  572.320
 multiply_cannon_loop             49687 16.0    3.415    3.809  456.924  541.969
 rs_pw_transfer_RS2PW_150          2792 13.0   54.332  106.806  285.423  531.166
 ot_mini                           2712 12.0    0.037    0.053  412.374  421.151
 potential_pw2rs                   2751 13.9    0.130    0.162  406.272  410.483
 cube_transpose_3                 93535 18.0   32.343   44.738  301.406  379.544
 multiply_cannon_multrec         794992 17.0  268.244  358.655  268.418  358.828
 cube_transpose_4                 79820 18.1   41.190   49.951  278.332  341.483
 qs_ot_get_derivative              2712 13.0    0.019    0.031  326.396  333.645
 mp_waitall_1                   ******* 17.1  257.951  331.618  257.951  331.618
 xc_vxc_pw_create                  2751 12.9    1.100    1.786  239.584  241.139
 qs_ot_get_derivative_taylor       2688 14.0    0.056    0.080  222.707  229.947
 cube_transpose_1                104539 18.1   30.810   34.961  142.908  222.708
 rs_pw_transfer_PW2RS_150          2790 15.9  132.584  139.300  206.292  213.290
 vdW_energy                        2751 13.9  181.436  195.777  181.436  195.777
 multiply_cannon_metrocomm1      794992 17.0    1.523    1.698  115.011  178.661
 cube_transpose_2                 90828 17.8   24.064   28.870  125.088  175.864
 rs_pw_transfer_RS2PW_50           2752 13.0   32.704   44.941  122.019  172.188
 xc_pw_derive                     16506 14.9    0.121    0.137  148.946  161.338
 init_scf_loop                      111  8.0    0.003    0.004  157.004  157.022
 xc_rho_set_and_dset_create        2751 13.9    4.329    5.106  138.505  143.181
 rs_pw_transfer_PW2RS_50           2751 15.9   22.443   41.908  126.717  141.396
 multiply_cannon_metrocomm3      794992 17.0    1.407    1.533   35.715  117.683
 build_core_hamiltonian_matrix_      39  6.0    0.001    0.002  104.852  112.626
 make_m2s                         99374 15.0    1.198    1.409  103.553  112.255
 mp_sum_d                         61781 14.3   51.890  109.296   51.890  109.296
 xc_pw_divergence                  2751 13.9    0.058    0.070   97.825  106.196
 mp_sum_l                        237013 15.0   66.210  105.618   66.210  105.618
 mp_irecv_dv                    1684162 17.9   28.400  101.824   28.400  101.824
 -------------------------------------------------------------------------------

 The number of warnings for this run is : 0
 
 -------------------------------------------------------------------------------
  **** **** ******  **  PROGRAM ENDED AT                 2023-04-19 12:57:34.692
 ***** ** ***  *** **   PROGRAM RAN ON                                 nid001305
 **    ****   ******    PROGRAM RAN BY                                  dpassero
 ***** **    ** ** **   PROGRAM PROCESS ID                                196123
  **** **  *******  **  PROGRAM STOPPED IN /scratch/e1000/dpassero/MMM_2023/jbac
                                           hmann/benzene/benzene/full
