     192
 i =        1, E =    -21748.8745928971
 Pt         0.0000000000        1.6003333000       10.0000000000
 Pt         2.7718585800        1.6003333000       10.0000000000
 Pt         5.5437171600        1.6003333000       10.0000000000
 Pt         8.3155757500        1.6003333000       10.0000000000
 Pt        11.0874343300        1.6003333000       10.0000000000
 Pt        13.8592929100        1.6003333000       10.0000000000
 Pt         1.3859292900        4.0008332500       10.0000000000
 Pt         4.1577878700        4.0008332500       10.0000000000
 Pt         6.9296464600        4.0008332500       10.0000000000
 Pt         9.7015050400        4.0008332500       10.0000000000
 Pt        12.4733636200        4.0008332500       10.0000000000
 Pt        15.2452222000        4.0008332500       10.0000000000
 Pt         2.7718585800        6.4013331900       10.0000000000
 Pt         5.5437171600        6.4013331900       10.0000000000
 Pt         8.3155757500        6.4013331900       10.0000000000
 Pt        11.0874343300        6.4013331900       10.0000000000
 Pt        13.8592929100        6.4013331900       10.0000000000
 Pt        16.6311514900        6.4013331900       10.0000000000
 Pt         4.1577878700        8.8018331400       10.0000000000
 Pt         6.9296464600        8.8018331400       10.0000000000
 Pt         9.7015050400        8.8018331400       10.0000000000
 Pt        12.4733636200        8.8018331400       10.0000000000
 Pt        15.2452222000        8.8018331400       10.0000000000
 Pt        18.0170807800        8.8018331400       10.0000000000
 Pt         5.5437171600       11.2023330900       10.0000000000
 Pt         8.3155757500       11.2023330900       10.0000000000
 Pt        11.0874343300       11.2023330900       10.0000000000
 Pt        13.8592929100       11.2023330900       10.0000000000
 Pt        16.6311514900       11.2023330900       10.0000000000
 Pt        19.4030100800       11.2023330900       10.0000000000
 Pt         6.9296464600       13.6028330400       10.0000000000
 Pt         9.7015050400       13.6028330400       10.0000000000
 Pt        12.4733636200       13.6028330400       10.0000000000
 Pt        15.2452222000       13.6028330400       10.0000000000
 Pt        18.0170807800       13.6028330400       10.0000000000
 Pt        20.7889393700       13.6028330400       10.0000000000
 Pt         0.0000000000        0.0000000000       12.2632130600
 Pt         2.7718585800        0.0000000000       12.2632130600
 Pt         5.5437171600        0.0000000000       12.2632130600
 Pt         8.3155757500        0.0000000000       12.2632130600
 Pt        11.0874343300        0.0000000000       12.2632130600
 Pt        13.8592929100        0.0000000000       12.2632130600
 Pt         1.3859292900        2.4004999500       12.2632130600
 Pt         4.1577878700        2.4004999500       12.2632130600
 Pt         6.9296464600        2.4004999500       12.2632130600
 Pt         9.7015050400        2.4004999500       12.2632130600
 Pt        12.4733636200        2.4004999500       12.2632130600
 Pt        15.2452222000        2.4004999500       12.2632130600
 Pt         2.7718585800        4.8009999000       12.2632130600
 Pt         5.5437171600        4.8009999000       12.2632130600
 Pt         8.3155757500        4.8009999000       12.2632130600
 Pt        11.0874343300        4.8009999000       12.2632130600
 Pt        13.8592929100        4.8009999000       12.2632130600
 Pt        16.6311514900        4.8009999000       12.2632130600
 Pt         4.1577878700        7.2014998400       12.2632130600
 Pt         6.9296464600        7.2014998400       12.2632130600
 Pt         9.7015050400        7.2014998400       12.2632130600
 Pt        12.4733636200        7.2014998400       12.2632130600
 Pt        15.2452222000        7.2014998400       12.2632130600
 Pt        18.0170807800        7.2014998400       12.2632130600
 Pt         5.5437171600        9.6019997900       12.2632130600
 Pt         8.3155757500        9.6019997900       12.2632130600
 Pt        11.0874343300        9.6019997900       12.2632130600
 Pt        13.8592929100        9.6019997900       12.2632130600
 Pt        16.6311514900        9.6019997900       12.2632130600
 Pt        19.4030100800        9.6019997900       12.2632130600
 Pt         6.9296464600       12.0024997400       12.2632130600
 Pt         9.7015050400       12.0024997400       12.2632130600
 Pt        12.4733636200       12.0024997400       12.2632130600
 Pt        15.2452222000       12.0024997400       12.2632130600
 Pt        18.0170807800       12.0024997400       12.2632130600
 Pt        20.7889393700       12.0024997400       12.2632130600
 Pt         1.3859292900        0.8001666500       14.5264261100
 Pt         4.1577878700        0.8001666500       14.5264261100
 Pt         6.9296464600        0.8001666500       14.5264261100
 Pt         9.7015050400        0.8001666500       14.5264261100
 Pt        12.4733636200        0.8001666500       14.5264261100
 Pt        15.2452222000        0.8001666500       14.5264261100
 Pt         2.7718585800        3.2006666000       14.5264261100
 Pt         5.5437171600        3.2006666000       14.5264261100
 Pt         8.3155757500        3.2006666000       14.5264261100
 Pt        11.0874343300        3.2006666000       14.5264261100
 Pt        13.8592929100        3.2006666000       14.5264261100
 Pt        16.6311514900        3.2006666000       14.5264261100
 Pt         4.1577878700        5.6011665500       14.5264261100
 Pt         6.9296464600        5.6011665500       14.5264261100
 Pt         9.7015050400        5.6011665500       14.5264261100
 Pt        12.4733636200        5.6011665500       14.5264261100
 Pt        15.2452222000        5.6011665500       14.5264261100
 Pt        18.0170807800        5.6011665500       14.5264261100
 Pt         5.5437171600        8.0016664900       14.5264261100
 Pt         8.3155757500        8.0016664900       14.5264261100
 Pt        11.0874343300        8.0016664900       14.5264261100
 Pt        13.8592929100        8.0016664900       14.5264261100
 Pt        16.6311514900        8.0016664900       14.5264261100
 Pt        19.4030100800        8.0016664900       14.5264261100
 Pt         6.9296464600       10.4021664400       14.5264261100
 Pt         9.7015050400       10.4021664400       14.5264261100
 Pt        12.4733636200       10.4021664400       14.5264261100
 Pt        15.2452222000       10.4021664400       14.5264261100
 Pt        18.0170807800       10.4021664400       14.5264261100
 Pt        20.7889393700       10.4021664400       14.5264261100
 Pt         8.3155757500       12.8026663900       14.5264261100
 Pt        11.0874343300       12.8026663900       14.5264261100
 Pt        13.8592929100       12.8026663900       14.5264261100
 Pt        16.6311514900       12.8026663900       14.5264261100
 Pt        19.4030100800       12.8026663900       14.5264261100
 Pt        22.1748686600       12.8026663900       14.5264261100
 Pt         0.0000000000        1.6003333000       16.7896391700
 Pt         2.7718585800        1.6003333000       16.7896391700
 Pt         5.5437171600        1.6003333000       16.7896391700
 Pt         8.3155757500        1.6003333000       16.7896391700
 Pt        11.0874343300        1.6003333000       16.7896391700
 Pt        13.8592929100        1.6003333000       16.7896391700
 Pt         1.3859292900        4.0008332500       16.7896391700
 Pt         4.1577878700        4.0008332500       16.7896391700
 Pt         6.9296464600        4.0008332500       16.7896391700
 Pt         9.7015050400        4.0008332500       16.7896391700
 Pt        12.4733636200        4.0008332500       16.7896391700
 Pt        15.2452222000        4.0008332500       16.7896391700
 Pt         2.7718585800        6.4013331900       16.7896391700
 Pt         5.5437171600        6.4013331900       16.7896391700
 Pt         8.3155757500        6.4013331900       16.7896391700
 Pt        11.0874343300        6.4013331900       16.7896391700
 Pt        13.8592929100        6.4013331900       16.7896391700
 Pt        16.6311514900        6.4013331900       16.7896391700
 Pt         4.1577878700        8.8018331400       16.7896391700
 Pt         6.9296464600        8.8018331400       16.7896391700
 Pt         9.7015050400        8.8018331400       16.7896391700
 Pt        12.4733636200        8.8018331400       16.7896391700
 Pt        15.2452222000        8.8018331400       16.7896391700
 Pt        18.0170807800        8.8018331400       16.7896391700
 Pt         5.5437171600       11.2023330900       16.7896391700
 Pt         8.3155757500       11.2023330900       16.7896391700
 Pt        11.0874343300       11.2023330900       16.7896391700
 Pt        13.8592929100       11.2023330900       16.7896391700
 Pt        16.6311514900       11.2023330900       16.7896391700
 Pt        19.4030100800       11.2023330900       16.7896391700
 Pt         6.9296464600       13.6028330400       16.7896391700
 Pt         9.7015050400       13.6028330400       16.7896391700
 Pt        12.4733636200       13.6028330400       16.7896391700
 Pt        15.2452222000       13.6028330400       16.7896391700
 Pt        18.0170807800       13.6028330400       16.7896391700
 Pt        20.7889393700       13.6028330400       16.7896391700
 Pt         0.0001093722        0.0013789443       19.0704044579
 Pt         2.7743683548        0.0004423950       19.0766978010
 Pt         5.5508435876        0.0001092710       19.0961356816
 Pt         8.3156437861       -0.0029120410       19.1046281634
 Pt        11.0812113774       -0.0051168675       19.0953280839
 Pt        13.8551930830        0.0012357347       19.0823739224
 Pt         1.3851838347        2.4026325929       19.0798193453
 Pt         4.1642528928        2.4045487529       19.0885744981
 Pt         6.9197714359        2.3875427079       19.0926492846
 Pt         9.6968319091        2.3601874190       19.0720939589
 Pt        12.4794865446        2.3858305266       19.0817642403
 Pt        15.2422904829        2.4038448056       19.0798629388
 Pt         2.7778017045        4.8063972908       19.0940360877
 Pt         5.5296095252        4.8032889709       19.0983958276
 Pt         8.2871772596        4.7885133477       19.0614448538
 Pt        11.1123981942        4.7770423566       19.0622128862
 Pt        13.8789655116        4.8025221742       19.0838707775
 Pt        16.6285400125        4.8071392456       19.0886503911
 Pt         4.1572864254        7.2029729513       19.1015117718
 Pt         6.8924761923        7.2210239551       19.0734539358
 Pt         9.6899444267        7.2318158490       19.0670003616
 Pt        12.4912420632        7.2129106393       19.0864038759
 Pt        15.2458187886        7.2006610702       19.0978323916
 Pt        18.0221681024        7.2004564680       19.0932896660
 Pt         5.5370821929        9.5961210613       19.0965922335
 Pt         8.3082147267        9.6069591869       19.0865329799
 Pt        11.0984681071        9.6132829896       19.0896860244
 Pt        13.8610767074        9.6032262599       19.0951750844
 Pt        16.6326678678        9.6021092262       19.0939507598
 Pt        19.4074477513        9.6010639383       19.0977045218
 Pt         6.9280530057       11.9975654656       19.0799801324
 Pt         9.7017508414       11.9990841468       19.0807485588
 Pt        12.4775279922       11.9969856538       19.0859489541
 Pt        15.2473667449       12.0069735917       19.0978487440
 Pt        18.0198496886       12.0080385138       19.0960186534
 Pt        20.7831769465       11.9975942423       19.0896561914
  C        10.0017676373        7.0162730594       21.2810719169
  C        11.2176031891        6.3101081566       21.3227039945
  C        11.2204112219        4.9045857451       21.2860991514
  C         9.9999806008        4.2084768276       21.3168751753
  C         8.7752209432        4.9004083667       21.2726591302
  C         8.7902445885        6.3057368197       21.3250133464
  H        10.0024653089        8.1011154490       21.3515763493
  H        12.1593019959        6.8510557968       21.3400884389
  H        12.1588206008        4.3599495668       21.3466455157
  H        10.0004262940        3.1223612225       21.3335577904
  H         7.8360647317        4.3545732340       21.3557699409
  H         7.8494487031        6.8461731525       21.3323902293
     192
 i =        2, E =    -21748.8990756639
 Pt         0.0000000000        1.6003333000       10.0000000000
 Pt         2.7718585800        1.6003333000       10.0000000000
 Pt         5.5437171600        1.6003333000       10.0000000000
 Pt         8.3155757500        1.6003333000       10.0000000000
 Pt        11.0874343300        1.6003333000       10.0000000000
 Pt        13.8592929100        1.6003333000       10.0000000000
 Pt         1.3859292900        4.0008332500       10.0000000000
 Pt         4.1577878700        4.0008332500       10.0000000000
 Pt         6.9296464600        4.0008332500       10.0000000000
 Pt         9.7015050400        4.0008332500       10.0000000000
 Pt        12.4733636200        4.0008332500       10.0000000000
 Pt        15.2452222000        4.0008332500       10.0000000000
 Pt         2.7718585800        6.4013331900       10.0000000000
 Pt         5.5437171600        6.4013331900       10.0000000000
 Pt         8.3155757500        6.4013331900       10.0000000000
 Pt        11.0874343300        6.4013331900       10.0000000000
 Pt        13.8592929100        6.4013331900       10.0000000000
 Pt        16.6311514900        6.4013331900       10.0000000000
 Pt         4.1577878700        8.8018331400       10.0000000000
 Pt         6.9296464600        8.8018331400       10.0000000000
 Pt         9.7015050400        8.8018331400       10.0000000000
 Pt        12.4733636200        8.8018331400       10.0000000000
 Pt        15.2452222000        8.8018331400       10.0000000000
 Pt        18.0170807800        8.8018331400       10.0000000000
 Pt         5.5437171600       11.2023330900       10.0000000000
 Pt         8.3155757500       11.2023330900       10.0000000000
 Pt        11.0874343300       11.2023330900       10.0000000000
 Pt        13.8592929100       11.2023330900       10.0000000000
 Pt        16.6311514900       11.2023330900       10.0000000000
 Pt        19.4030100800       11.2023330900       10.0000000000
 Pt         6.9296464600       13.6028330400       10.0000000000
 Pt         9.7015050400       13.6028330400       10.0000000000
 Pt        12.4733636200       13.6028330400       10.0000000000
 Pt        15.2452222000       13.6028330400       10.0000000000
 Pt        18.0170807800       13.6028330400       10.0000000000
 Pt        20.7889393700       13.6028330400       10.0000000000
 Pt         0.0000000000        0.0000000000       12.2632130600
 Pt         2.7718585800        0.0000000000       12.2632130600
 Pt         5.5437171600        0.0000000000       12.2632130600
 Pt         8.3155757500        0.0000000000       12.2632130600
 Pt        11.0874343300        0.0000000000       12.2632130600
 Pt        13.8592929100        0.0000000000       12.2632130600
 Pt         1.3859292900        2.4004999500       12.2632130600
 Pt         4.1577878700        2.4004999500       12.2632130600
 Pt         6.9296464600        2.4004999500       12.2632130600
 Pt         9.7015050400        2.4004999500       12.2632130600
 Pt        12.4733636200        2.4004999500       12.2632130600
 Pt        15.2452222000        2.4004999500       12.2632130600
 Pt         2.7718585800        4.8009999000       12.2632130600
 Pt         5.5437171600        4.8009999000       12.2632130600
 Pt         8.3155757500        4.8009999000       12.2632130600
 Pt        11.0874343300        4.8009999000       12.2632130600
 Pt        13.8592929100        4.8009999000       12.2632130600
 Pt        16.6311514900        4.8009999000       12.2632130600
 Pt         4.1577878700        7.2014998400       12.2632130600
 Pt         6.9296464600        7.2014998400       12.2632130600
 Pt         9.7015050400        7.2014998400       12.2632130600
 Pt        12.4733636200        7.2014998400       12.2632130600
 Pt        15.2452222000        7.2014998400       12.2632130600
 Pt        18.0170807800        7.2014998400       12.2632130600
 Pt         5.5437171600        9.6019997900       12.2632130600
 Pt         8.3155757500        9.6019997900       12.2632130600
 Pt        11.0874343300        9.6019997900       12.2632130600
 Pt        13.8592929100        9.6019997900       12.2632130600
 Pt        16.6311514900        9.6019997900       12.2632130600
 Pt        19.4030100800        9.6019997900       12.2632130600
 Pt         6.9296464600       12.0024997400       12.2632130600
 Pt         9.7015050400       12.0024997400       12.2632130600
 Pt        12.4733636200       12.0024997400       12.2632130600
 Pt        15.2452222000       12.0024997400       12.2632130600
 Pt        18.0170807800       12.0024997400       12.2632130600
 Pt        20.7889393700       12.0024997400       12.2632130600
 Pt         1.3859292900        0.8001666500       14.5264261100
 Pt         4.1577878700        0.8001666500       14.5264261100
 Pt         6.9296464600        0.8001666500       14.5264261100
 Pt         9.7015050400        0.8001666500       14.5264261100
 Pt        12.4733636200        0.8001666500       14.5264261100
 Pt        15.2452222000        0.8001666500       14.5264261100
 Pt         2.7718585800        3.2006666000       14.5264261100
 Pt         5.5437171600        3.2006666000       14.5264261100
 Pt         8.3155757500        3.2006666000       14.5264261100
 Pt        11.0874343300        3.2006666000       14.5264261100
 Pt        13.8592929100        3.2006666000       14.5264261100
 Pt        16.6311514900        3.2006666000       14.5264261100
 Pt         4.1577878700        5.6011665500       14.5264261100
 Pt         6.9296464600        5.6011665500       14.5264261100
 Pt         9.7015050400        5.6011665500       14.5264261100
 Pt        12.4733636200        5.6011665500       14.5264261100
 Pt        15.2452222000        5.6011665500       14.5264261100
 Pt        18.0170807800        5.6011665500       14.5264261100
 Pt         5.5437171600        8.0016664900       14.5264261100
 Pt         8.3155757500        8.0016664900       14.5264261100
 Pt        11.0874343300        8.0016664900       14.5264261100
 Pt        13.8592929100        8.0016664900       14.5264261100
 Pt        16.6311514900        8.0016664900       14.5264261100
 Pt        19.4030100800        8.0016664900       14.5264261100
 Pt         6.9296464600       10.4021664400       14.5264261100
 Pt         9.7015050400       10.4021664400       14.5264261100
 Pt        12.4733636200       10.4021664400       14.5264261100
 Pt        15.2452222000       10.4021664400       14.5264261100
 Pt        18.0170807800       10.4021664400       14.5264261100
 Pt        20.7889393700       10.4021664400       14.5264261100
 Pt         8.3155757500       12.8026663900       14.5264261100
 Pt        11.0874343300       12.8026663900       14.5264261100
 Pt        13.8592929100       12.8026663900       14.5264261100
 Pt        16.6311514900       12.8026663900       14.5264261100
 Pt        19.4030100800       12.8026663900       14.5264261100
 Pt        22.1748686600       12.8026663900       14.5264261100
 Pt         0.0000000000        1.6003333000       16.7896391700
 Pt         2.7718585800        1.6003333000       16.7896391700
 Pt         5.5437171600        1.6003333000       16.7896391700
 Pt         8.3155757500        1.6003333000       16.7896391700
 Pt        11.0874343300        1.6003333000       16.7896391700
 Pt        13.8592929100        1.6003333000       16.7896391700
 Pt         1.3859292900        4.0008332500       16.7896391700
 Pt         4.1577878700        4.0008332500       16.7896391700
 Pt         6.9296464600        4.0008332500       16.7896391700
 Pt         9.7015050400        4.0008332500       16.7896391700
 Pt        12.4733636200        4.0008332500       16.7896391700
 Pt        15.2452222000        4.0008332500       16.7896391700
 Pt         2.7718585800        6.4013331900       16.7896391700
 Pt         5.5437171600        6.4013331900       16.7896391700
 Pt         8.3155757500        6.4013331900       16.7896391700
 Pt        11.0874343300        6.4013331900       16.7896391700
 Pt        13.8592929100        6.4013331900       16.7896391700
 Pt        16.6311514900        6.4013331900       16.7896391700
 Pt         4.1577878700        8.8018331400       16.7896391700
 Pt         6.9296464600        8.8018331400       16.7896391700
 Pt         9.7015050400        8.8018331400       16.7896391700
 Pt        12.4733636200        8.8018331400       16.7896391700
 Pt        15.2452222000        8.8018331400       16.7896391700
 Pt        18.0170807800        8.8018331400       16.7896391700
 Pt         5.5437171600       11.2023330900       16.7896391700
 Pt         8.3155757500       11.2023330900       16.7896391700
 Pt        11.0874343300       11.2023330900       16.7896391700
 Pt        13.8592929100       11.2023330900       16.7896391700
 Pt        16.6311514900       11.2023330900       16.7896391700
 Pt        19.4030100800       11.2023330900       16.7896391700
 Pt         6.9296464600       13.6028330400       16.7896391700
 Pt         9.7015050400       13.6028330400       16.7896391700
 Pt        12.4733636200       13.6028330400       16.7896391700
 Pt        15.2452222000       13.6028330400       16.7896391700
 Pt        18.0170807800       13.6028330400       16.7896391700
 Pt        20.7889393700       13.6028330400       16.7896391700
 Pt         0.0004246445        0.0027614912       19.1043593109
 Pt         2.7801588409        0.0012493319       19.1134317603
 Pt         5.5478281320       -0.0014673475       19.1349746089
 Pt         8.3142248615       -0.0097769001       19.1434148024
 Pt        11.0837748856       -0.0129384911       19.1349132532
 Pt        13.8495225419       -0.0008911299       19.1290652986
 Pt         1.3868038077        2.4070574493       19.1222496474
 Pt         4.1637674001        2.4047522326       19.1334575181
 Pt         6.9153414180        2.3805015565       19.1362065287
 Pt         9.6938602287        2.3372259750       19.0963817611
 Pt        12.4836131904        2.3713824152       19.1230220946
 Pt        15.2398461794        2.4093843264       19.1226462822
 Pt         2.7762663042        4.8053910002       19.1316684941
 Pt         5.5191574239        4.8010604933       19.1407080338
 Pt         8.2758788555        4.7862822120       19.0736090246
 Pt        11.1232593359        4.7601192252       19.0724197418
 Pt        13.8969771368        4.8052589135       19.1219904668
 Pt        16.6299716074        4.8093016039       19.1338412592
 Pt         4.1521308350        7.2056108873       19.1377652770
 Pt         6.8698894948        7.2344046466       19.1003024331
 Pt         9.6792390875        7.2433502766       19.0848059262
 Pt        12.4978713611        7.2175535314       19.1220853341
 Pt        15.2523044576        7.2029870784       19.1381346123
 Pt        18.0240926451        7.2014862323       19.1307727030
 Pt         5.5319301741        9.6010359142       19.1356694272
 Pt         8.2997756219        9.6114509569       19.1335804990
 Pt        11.1053387623        9.6236611055       19.1319608063
 Pt        13.8668881610        9.6071799338       19.1351379282
 Pt        16.6361216514        9.6031771805       19.1364681583
 Pt        19.4073118373        9.6038635730       19.1379510188
 Pt         6.9231140921       11.9911702145       19.1225070194
 Pt         9.7038933259       11.9949992107       19.1251375644
 Pt        12.4801542064       11.9953069640       19.1292134206
 Pt        15.2494526697       12.0066809264       19.1371866691
 Pt        18.0227415531       12.0072058026       19.1361003437
 Pt        20.7817377394       11.9949984459       19.1348661623
  C        10.0025834347        7.0275516740       21.2772363629
  C        11.2279071917        6.3185289505       21.3258160525
  C        11.2280096495        4.9040665209       21.2819405091
  C         9.9997217690        4.2050224456       21.3126686414
  C         8.7633462828        4.8962563315       21.2597332838
  C         8.7859519966        6.3100313083       21.3260421321
  H        10.0042780527        8.1093900489       21.4008357221
  H        12.1700752598        6.8574638397       21.3824807858
  H        12.1632261858        4.3590281225       21.3911757821
  H        10.0013643116        3.1198733766       21.3671304355
  H         7.8276368716        4.3496390423       21.4086876617
  H         7.8463910045        6.8489940325       21.3662812161
     192
 i =        3, E =    -21748.9061902294
 Pt         0.0000000000        1.6003333000       10.0000000000
 Pt         2.7718585800        1.6003333000       10.0000000000
 Pt         5.5437171600        1.6003333000       10.0000000000
 Pt         8.3155757500        1.6003333000       10.0000000000
 Pt        11.0874343300        1.6003333000       10.0000000000
 Pt        13.8592929100        1.6003333000       10.0000000000
 Pt         1.3859292900        4.0008332500       10.0000000000
 Pt         4.1577878700        4.0008332500       10.0000000000
 Pt         6.9296464600        4.0008332500       10.0000000000
 Pt         9.7015050400        4.0008332500       10.0000000000
 Pt        12.4733636200        4.0008332500       10.0000000000
 Pt        15.2452222000        4.0008332500       10.0000000000
 Pt         2.7718585800        6.4013331900       10.0000000000
 Pt         5.5437171600        6.4013331900       10.0000000000
 Pt         8.3155757500        6.4013331900       10.0000000000
 Pt        11.0874343300        6.4013331900       10.0000000000
 Pt        13.8592929100        6.4013331900       10.0000000000
 Pt        16.6311514900        6.4013331900       10.0000000000
 Pt         4.1577878700        8.8018331400       10.0000000000
 Pt         6.9296464600        8.8018331400       10.0000000000
 Pt         9.7015050400        8.8018331400       10.0000000000
 Pt        12.4733636200        8.8018331400       10.0000000000
 Pt        15.2452222000        8.8018331400       10.0000000000
 Pt        18.0170807800        8.8018331400       10.0000000000
 Pt         5.5437171600       11.2023330900       10.0000000000
 Pt         8.3155757500       11.2023330900       10.0000000000
 Pt        11.0874343300       11.2023330900       10.0000000000
 Pt        13.8592929100       11.2023330900       10.0000000000
 Pt        16.6311514900       11.2023330900       10.0000000000
 Pt        19.4030100800       11.2023330900       10.0000000000
 Pt         6.9296464600       13.6028330400       10.0000000000
 Pt         9.7015050400       13.6028330400       10.0000000000
 Pt        12.4733636200       13.6028330400       10.0000000000
 Pt        15.2452222000       13.6028330400       10.0000000000
 Pt        18.0170807800       13.6028330400       10.0000000000
 Pt        20.7889393700       13.6028330400       10.0000000000
 Pt         0.0000000000        0.0000000000       12.2632130600
 Pt         2.7718585800        0.0000000000       12.2632130600
 Pt         5.5437171600        0.0000000000       12.2632130600
 Pt         8.3155757500        0.0000000000       12.2632130600
 Pt        11.0874343300        0.0000000000       12.2632130600
 Pt        13.8592929100        0.0000000000       12.2632130600
 Pt         1.3859292900        2.4004999500       12.2632130600
 Pt         4.1577878700        2.4004999500       12.2632130600
 Pt         6.9296464600        2.4004999500       12.2632130600
 Pt         9.7015050400        2.4004999500       12.2632130600
 Pt        12.4733636200        2.4004999500       12.2632130600
 Pt        15.2452222000        2.4004999500       12.2632130600
 Pt         2.7718585800        4.8009999000       12.2632130600
 Pt         5.5437171600        4.8009999000       12.2632130600
 Pt         8.3155757500        4.8009999000       12.2632130600
 Pt        11.0874343300        4.8009999000       12.2632130600
 Pt        13.8592929100        4.8009999000       12.2632130600
 Pt        16.6311514900        4.8009999000       12.2632130600
 Pt         4.1577878700        7.2014998400       12.2632130600
 Pt         6.9296464600        7.2014998400       12.2632130600
 Pt         9.7015050400        7.2014998400       12.2632130600
 Pt        12.4733636200        7.2014998400       12.2632130600
 Pt        15.2452222000        7.2014998400       12.2632130600
 Pt        18.0170807800        7.2014998400       12.2632130600
 Pt         5.5437171600        9.6019997900       12.2632130600
 Pt         8.3155757500        9.6019997900       12.2632130600
 Pt        11.0874343300        9.6019997900       12.2632130600
 Pt        13.8592929100        9.6019997900       12.2632130600
 Pt        16.6311514900        9.6019997900       12.2632130600
 Pt        19.4030100800        9.6019997900       12.2632130600
 Pt         6.9296464600       12.0024997400       12.2632130600
 Pt         9.7015050400       12.0024997400       12.2632130600
 Pt        12.4733636200       12.0024997400       12.2632130600
 Pt        15.2452222000       12.0024997400       12.2632130600
 Pt        18.0170807800       12.0024997400       12.2632130600
 Pt        20.7889393700       12.0024997400       12.2632130600
 Pt         1.3859292900        0.8001666500       14.5264261100
 Pt         4.1577878700        0.8001666500       14.5264261100
 Pt         6.9296464600        0.8001666500       14.5264261100